Siesta Version:                                        siesta-3.2-pl-3
Architecture  : x86_64-unknown-linux-gnu--unknown
Compiler flags: mpiifort -g -O2 -fPIC -xSSE4.1 -fp-model source -shared-intel 
PARALLEL version

* Running on    8 nodes in parallel
>> Start of run:  25-NOV-2015  23:19:49

                           ***********************       
                           *  WELCOME TO SIESTA  *       
                           ***********************       

reinit: Reading from standard input
************************** Dump of input data file ****************************
#(1) General system descriptors
SystemName            GRP_doping    # Descriptive name of the system
SystemLabel           GRP_doping    # Short name for naming files
%include STRUCT.fdf
%include KPT.fdf
%include BASIS.fdf
#%include TS.fdf # for transiesta calculation
#(4) DFT, Grid, SCF
XC.functional         GGA           # LDA or GGA (default = LDA)
XC.authors            PBE           # CA (Ceperley-Aldr) = PZ
                                    #    (Perdew-Zunger) - LDA - Default
                                    # PW92 (Perdew-Wang-92) - LDA
                                    # PBE (Perdew-Burke-Ernzerhof) - GGA
MeshCutoff            200.000000    Ry      # Default: 50.0 Ry ~ 0.444 Bohr
                                    #         100.0 Ry ~ 0.314 Bohr
MaxSCFIterations      500           # Default: 50
DM.MixingWeight       0.05          # Default: 0.25
DM.NumberPulay        10            # Default: 0
DM.PulayOnFile        F             # SystemLabel.P1, SystemLabel.P2
DM.Tolerance          1.d-4         # Default: 1.d-4
DM.UseSaveDM          .true.        # because of the bug
SCFMustConverge       .true.
NeglNonOverlapInt     F             # Default: F
#(5) Eigenvalue problem: order-N or diagonalization
SolutionMethod        Diagon        # or Transiesta
ElectronicTemperature 300.0 K       # Default: 300.0 K
#(6) Molecular dynamics and relaxations
#MD.TypeOfRun          CG            # Type of dynamics:
#MD.VariableCell       F
#MD.NumCGsteps         0           # 0 for single-point / 100 for gopt
#MD.MaxCGDispl         0.2 Bohr      # Default: 0.2 Bohr
#MD.MaxForceTol        0.02 eV/Ang   # Default: 0.04 eV/Ang
#MD.MaxStressTol       1.0 GPa       # Default: 1.0 GPa
# Geometry Constraints
#%block GeometryConstraints
#	position from 1 to 44
#%endblock GeometryConstraints
************************** End of input data file *****************************

reinit: -----------------------------------------------------------------------
reinit: System Name: GRP_doping
reinit: -----------------------------------------------------------------------
reinit: System Label: GRP_doping                                                  
reinit: -----------------------------------------------------------------------

initatom: Reading input for the pseudopotentials and atomic orbitals ----------
 Species number:            1  Label: B Atomic number:           5
 Species number:            2  Label: C Atomic number:           6
Ground state valence configuration:   2s02  2p01
Reading pseudopotential information in formatted form from B.psf

Valence configuration for pseudopotential generation:
2s( 2.00) rc: 1.74
2p( 1.00) rc: 1.74
3d( 0.00) rc: 1.74
4f( 0.00) rc: 1.74
Ground state valence configuration:   2s02  2p02
Reading pseudopotential information in formatted form from C.psf

Valence configuration for pseudopotential generation:
2s( 2.00) rc: 1.54
2p( 2.00) rc: 1.54
3d( 0.00) rc: 1.54
4f( 0.00) rc: 1.54
For B, standard SIESTA heuristics set lmxkb to 3
 (one more than the basis l, including polarization orbitals).
Use PS.lmax or PS.KBprojectors blocks to override.
For C, standard SIESTA heuristics set lmxkb to 3
 (one more than the basis l, including polarization orbitals).
Use PS.lmax or PS.KBprojectors blocks to override.

<basis_specs>
===============================================================================
B                    Z=   5    Mass=  10.810        Charge= 0.17977+309
Lmxo=1 Lmxkb= 3    BasisType=split      Semic=F
L=0  Nsemic=0  Cnfigmx=2
          n=1  nzeta=2  polorb=0
            splnorm:   0.15000    
               vcte:    0.0000    
               rinn:    0.0000    
                rcs:    0.0000      0.0000    
            lambdas:    1.0000      1.0000    
L=1  Nsemic=0  Cnfigmx=2
          n=1  nzeta=2  polorb=1
            splnorm:   0.15000    
               vcte:    0.0000    
               rinn:    0.0000    
                rcs:    0.0000      0.0000    
            lambdas:    1.0000      1.0000    
-------------------------------------------------------------------------------
L=0  Nkbl=1  erefs: 0.17977+309
L=1  Nkbl=1  erefs: 0.17977+309
L=2  Nkbl=1  erefs: 0.17977+309
L=3  Nkbl=1  erefs: 0.17977+309
===============================================================================
</basis_specs>

atom: Called for B                     (Z =   5)

read_vps: Pseudopotential generation method:
read_vps: ATM3      Troullier-Martins                       
Total valence charge:    3.00000

read_vps: Pseudopotential includes a core correction:
read_vps: Pseudo-core for xc-correction

xc_check: Exchange-correlation functional:
xc_check: GGA Perdew, Burke & Ernzerhof 1996
V l=0 = -2*Zval/r beyond r=  1.7165
V l=1 = -2*Zval/r beyond r=  1.7165
V l=2 = -2*Zval/r beyond r=  1.7165
V l=3 = -2*Zval/r beyond r=  1.6951
All V_l potentials equal beyond r=  1.7165
This should be close to max(r_c) in ps generation
All pots = -2*Zval/r beyond r=  1.7165

VLOCAL1: 99.0% of the norm of Vloc inside     14.733 Ry
VLOCAL1: 99.9% of the norm of Vloc inside     33.577 Ry
atom: Maximum radius for 4*pi*r*r*local-pseudopot. charge    2.04484
atom: Maximum radius for r*vlocal+2*Zval:    1.75994
GHOST: No ghost state for L =  0
GHOST: No ghost state for L =  1
GHOST: No ghost state for L =  2
GHOST: No ghost state for L =  3

KBgen: Kleinman-Bylander projectors: 
   l= 0   rc=  1.897051   el= -0.693730   Ekb=  4.595746   kbcos=  0.286105
   l= 1   rc=  1.920920   el= -0.265236   Ekb= -2.350715   kbcos= -0.315747
   l= 2   rc=  2.044840   el=  0.002055   Ekb= -0.690767   kbcos= -0.013822
   l= 3   rc=  2.149707   el=  0.003188   Ekb= -0.315358   kbcos= -0.002055

KBgen: Total number of  Kleinman-Bylander projectors:   16
atom: -------------------------------------------------------------------------

atom: SANKEY-TYPE ORBITALS:
atom: Selected multiple-zeta basis: split     

SPLIT: Orbitals with angular momentum L= 0

SPLIT: Basis orbitals for state 2s

SPLIT: PAO cut-off radius determined from an
SPLIT: energy shift=  0.007350 Ry

   izeta = 1
                 lambda =    1.000000
                     rc =    5.422032
                 energy =   -0.686029
                kinetic =    0.576707
    potential(screened) =   -1.262736
       potential(ionic) =   -3.271094

   izeta = 2
                 rmatch =    4.222573
              splitnorm =    0.150000
                 energy =   -0.602132
                kinetic =    0.858975
    potential(screened) =   -1.461107
       potential(ionic) =   -3.582536

SPLIT: Orbitals with angular momentum L= 1

SPLIT: Basis orbitals for state 2p

SPLIT: PAO cut-off radius determined from an
SPLIT: energy shift=  0.007350 Ry

   izeta = 1
                 lambda =    1.000000
                     rc =    6.790259
                 energy =   -0.258578
                kinetic =    1.481412
    potential(screened) =   -1.739989
       potential(ionic) =   -3.657461

   izeta = 2
                 rmatch =    4.608740
              splitnorm =    0.150000
                 energy =   -0.173757
                kinetic =    2.186690
    potential(screened) =   -2.360447
       potential(ionic) =   -4.464260

POLgen: Perturbative polarization orbital with L=  2

POLgen: Polarization orbital for state 2p

   izeta = 1
                     rc =    6.790259
                 energy =    0.684082
                kinetic =    1.471481
    potential(screened) =   -0.787399
       potential(ionic) =   -2.406985
atom: Total number of Sankey-type orbitals: 13

atm_pop: Valence configuration (for local Pseudopot. screening):
 2s( 2.00)                                                            
 2p( 1.00)                                                            
Vna: chval, zval:    3.00000   3.00000

Vna:  Cut-off radius for the neutral-atom potential:   6.790259
comcore: Pseudo-core radius Rcore=  2.122997

atom: _________________________________________________________________________

<basis_specs>
===============================================================================
C                    Z=   6    Mass=  12.010        Charge= 0.17977+309
Lmxo=1 Lmxkb= 3    BasisType=split      Semic=F
L=0  Nsemic=0  Cnfigmx=2
          n=1  nzeta=2  polorb=0
            splnorm:   0.15000    
               vcte:    0.0000    
               rinn:    0.0000    
                rcs:    0.0000      0.0000    
            lambdas:    1.0000      1.0000    
L=1  Nsemic=0  Cnfigmx=2
          n=1  nzeta=2  polorb=1
            splnorm:   0.15000    
               vcte:    0.0000    
               rinn:    0.0000    
                rcs:    0.0000      0.0000    
            lambdas:    1.0000      1.0000    
-------------------------------------------------------------------------------
L=0  Nkbl=1  erefs: 0.17977+309
L=1  Nkbl=1  erefs: 0.17977+309
L=2  Nkbl=1  erefs: 0.17977+309
L=3  Nkbl=1  erefs: 0.17977+309
===============================================================================
</basis_specs>

atom: Called for C                     (Z =   6)

read_vps: Pseudopotential generation method:
read_vps: ATM3      Troullier-Martins                       
Total valence charge:    4.00000

read_vps: Pseudopotential includes a core correction:
read_vps: Pseudo-core for xc-correction

xc_check: Exchange-correlation functional:
xc_check: GGA Perdew, Burke & Ernzerhof 1996
V l=0 = -2*Zval/r beyond r=  1.5227
V l=1 = -2*Zval/r beyond r=  1.5227
V l=2 = -2*Zval/r beyond r=  1.5227
V l=3 = -2*Zval/r beyond r=  1.5038
All V_l potentials equal beyond r=  1.5227
This should be close to max(r_c) in ps generation
All pots = -2*Zval/r beyond r=  1.5227

VLOCAL1: 99.0% of the norm of Vloc inside     18.722 Ry
VLOCAL1: 99.9% of the norm of Vloc inside     42.668 Ry
atom: Maximum radius for 4*pi*r*r*local-pseudopot. charge    1.83678
atom: Maximum radius for r*vlocal+2*Zval:    1.58088
GHOST: No ghost state for L =  0
GHOST: No ghost state for L =  1
GHOST: No ghost state for L =  2
GHOST: No ghost state for L =  3

KBgen: Kleinman-Bylander projectors: 
   l= 0   rc=  1.704034   el= -1.009801   Ekb=  5.335044   kbcos=  0.316824
   l= 1   rc=  1.704034   el= -0.388707   Ekb= -3.785862   kbcos= -0.366464
   l= 2   rc=  1.791422   el=  0.001971   Ekb= -0.970471   kbcos= -0.009212
   l= 3   rc=  1.859892   el=  0.003065   Ekb= -0.399525   kbcos= -0.001223

KBgen: Total number of  Kleinman-Bylander projectors:   16
atom: -------------------------------------------------------------------------

atom: SANKEY-TYPE ORBITALS:
atom: Selected multiple-zeta basis: split     

SPLIT: Orbitals with angular momentum L= 0

SPLIT: Basis orbitals for state 2s

SPLIT: PAO cut-off radius determined from an
SPLIT: energy shift=  0.007350 Ry

   izeta = 1
                 lambda =    1.000000
                     rc =    4.632753
                 energy =   -1.002270
                kinetic =    0.855760
    potential(screened) =   -1.858031
       potential(ionic) =   -5.417575

   izeta = 2
                 rmatch =    3.431921
              splitnorm =    0.150000
                 energy =   -0.867111
                kinetic =    1.300804
    potential(screened) =   -2.167915
       potential(ionic) =   -5.962684

SPLIT: Orbitals with angular momentum L= 1

SPLIT: Basis orbitals for state 2p

SPLIT: PAO cut-off radius determined from an
SPLIT: energy shift=  0.007350 Ry

   izeta = 1
                 lambda =    1.000000
                     rc =    5.658549
                 energy =   -0.381140
                kinetic =    2.399701
    potential(screened) =   -2.780841
       potential(ionic) =   -6.206085

   izeta = 2
                 rmatch =    3.653288
              splitnorm =    0.150000
                 energy =   -0.249149
                kinetic =    3.542762
    potential(screened) =   -3.791911
       potential(ionic) =   -7.581078

POLgen: Perturbative polarization orbital with L=  2

POLgen: Polarization orbital for state 2p

   izeta = 1
                     rc =    5.658549
                 energy =    1.109913
                kinetic =    2.304789
    potential(screened) =   -1.194876
       potential(ionic) =   -4.013592
atom: Total number of Sankey-type orbitals: 13

atm_pop: Valence configuration (for local Pseudopot. screening):
 2s( 2.00)                                                            
 2p( 2.00)                                                            
Vna: chval, zval:    4.00000   4.00000

Vna:  Cut-off radius for the neutral-atom potential:   5.658549
comcore: Pseudo-core radius Rcore=  1.791422

atom: _________________________________________________________________________

prinput: Basis input ----------------------------------------------------------

PAO.BasisType split     

%block ChemicalSpeciesLabel
    1    5 B                       # Species index, atomic number, species label
    2    6 C                       # Species index, atomic number, species label
%endblock ChemicalSpeciesLabel

%block PAO.Basis                 # Define Basis set
B                     2                    # Species label, number of l-shells
 n=2   0   2                         # n, l, Nzeta 
   5.422      4.223   
   1.000      1.000   
 n=2   1   2 P   1                   # n, l, Nzeta, Polarization, NzetaPol
   6.790      4.609   
   1.000      1.000   
C                     2                    # Species label, number of l-shells
 n=2   0   2                         # n, l, Nzeta 
   4.633      3.432   
   1.000      1.000   
 n=2   1   2 P   1                   # n, l, Nzeta, Polarization, NzetaPol
   5.659      3.653   
   1.000      1.000   
%endblock PAO.Basis

prinput: ----------------------------------------------------------------------

coor:   Atomic-coordinates input format  =     Cartesian coordinates
coor:                                          (in Angstroms)

siesta: Atomic coordinates (Bohr) and species
siesta:      2.23554   1.32097   0.00000  1        1
siesta:      9.21994   5.35379   0.00000  1        2
siesta:      4.56367   2.66461   0.00000  2        3
siesta:     32.50328  21.48508   0.00000  2        4
siesta:     34.83141  22.82873   0.00000  2        5
siesta:     34.83116  17.45226   0.00000  2        6
siesta:     37.15930  18.79590   0.00000  2        7
siesta:     32.50291  13.41944   0.00000  2        8
siesta:     34.83104  14.76308   0.00000  2        9
siesta:     30.17465   9.38661   0.00000  2       10
siesta:     32.50278  10.73026   0.00000  2       11
siesta:     27.84639   5.35379   0.00000  2       12
siesta:     30.17453   6.69743   0.00000  2       13
siesta:     27.84714  21.48508   0.00000  2       14
siesta:     30.17527  22.82873   0.00000  2       15
siesta:      6.89168   1.32097   0.00000  2       16
siesta:      9.21981   2.66461   0.00000  2       17
siesta:     11.54782   1.32097   0.00000  2       18
siesta:     13.87595   2.66461   0.00000  2       19
siesta:     16.20396   1.32097   0.00000  2       20
siesta:     18.53210   2.66461   0.00000  2       21
siesta:     20.86199   1.32097   0.00000  2       22
siesta:     23.19013   2.66461   0.00000  2       23
siesta:     25.51813   1.32097   0.00000  2       24
siesta:     27.84627   2.66461   0.00000  2       25
siesta:      4.56380   5.35379   0.00000  2       26
siesta:      6.89193   6.69743   0.00000  2       27
siesta:     11.54807   6.69743   0.00000  2       28
siesta:     13.87608   5.35379   0.00000  2       29
siesta:     16.20421   6.69743   0.00000  2       30
siesta:     18.53411   5.35379   0.00000  2       31
siesta:     20.86224   6.69743   0.00000  2       32
siesta:     23.19025   5.35379   0.00000  2       33
siesta:     25.51838   6.69743   0.00000  2       34
siesta:      6.89205   9.38661   0.00000  2       35
siesta:      9.22019  10.73026   0.00000  2       36
siesta:     11.54820   9.38661   0.00000  2       37
siesta:     13.87633  10.73026   0.00000  2       38
siesta:     16.20434   9.38661   0.00000  2       39
siesta:     18.53247  10.73026   0.00000  2       40
siesta:     20.86237   9.38661   0.00000  2       41
siesta:     23.19050  10.73026   0.00000  2       42
siesta:      9.22031  13.41944   0.00000  2       43
siesta:     11.54845  14.76308   0.00000  2       44
siesta:     13.87645  13.41944   0.00000  2       45
siesta:     16.20459  14.76308   0.00000  2       46
siesta:     18.53448  13.41944   0.00000  2       47
siesta:     20.86262  14.76308   0.00000  2       48
siesta:     11.54857  17.45226   0.00000  2       49
siesta:     13.87670  18.79590   0.00000  2       50
siesta:     16.20471  17.45226   0.00000  2       51
siesta:     18.53284  18.79590   0.00000  2       52
siesta:     13.87683  21.48508   0.00000  2       53
siesta:     16.20496  22.82873   0.00000  2       54
siesta:     18.53486  21.48508   0.00000  2       55
siesta:     20.86299  22.82873   0.00000  2       56
siesta:     25.51851   9.38661   0.00000  2       57
siesta:     27.84664  10.73026   0.00000  2       58
siesta:     23.19063  13.41944   0.00000  2       59
siesta:     25.51876  14.76308   0.00000  2       60
siesta:     20.86274  17.45226   0.00000  2       61
siesta:     23.19088  18.79590   0.00000  2       62
siesta:     27.84677  13.41944   0.00000  2       63
siesta:     30.17490  14.76308   0.00000  2       64
siesta:     25.51888  17.45226   0.00000  2       65
siesta:     27.84702  18.79590   0.00000  2       66
siesta:     23.19100  21.48508   0.00000  2       67
siesta:     25.51913  22.82873   0.00000  2       68
siesta:     30.17503  17.45226   0.00000  2       69
siesta:     32.50316  18.79590   0.00000  2       70
siesta:     37.16131  21.48508   0.00000  2       71
siesta:     39.48945  22.82873   0.00000  2       72

siesta: System type = slab      

initatomlists: Number of atoms, orbitals, and projectors:     72   936  1152

siesta: ******************** Simulation parameters ****************************
siesta:
siesta: The following are some of the parameters of the simulation.
siesta: A complete list of the parameters used, including default values,
siesta: can be found in file out.fdf
siesta:
redata: Non-Collinear-spin run           =     F
redata: SpinPolarized (Up/Down) run      =     F
redata: Number of spin components        =     1
redata: Long output                      =     F
redata: Number of Atomic Species         =        2
redata: Charge density info will appear in .RHO file
redata: Write Mulliken Pop.              =     NO
redata: Mesh Cutoff                      =   200.0000  Ry
redata: Net charge of the system         =     0.0000 |e|
redata: Max. number of SCF Iter          =      500
redata: SCF convergence failure will abort job
redata: Performing Pulay mixing using    =    10 iterations
redata: Mix DM in first SCF step ?       =     F
redata: Write Pulay info on disk?        =     F
redata: Discard 1st Pulay DM after  kick =     F
redata: New DM Mixing Weight             =     0.0500
redata: New DM Occupancy tolerance       = 0.000000000001
redata: No kicks to SCF
redata: DM Mixing Weight for Kicks       =     0.5000
redata: DM Tolerance for SCF             =     0.000100
redata: Require Energy convergence for SCF =     F
redata: DM Energy tolerance for SCF      =     0.000100 eV
redata: Require Harris convergence for SCF =     F
redata: DM Harris energy tolerance for SCF =     0.000100 eV
redata: Using Saved Data (generic)   =     F
redata: Use continuation files for DM    =     T
redata: Neglect nonoverlap interactions  =     F
redata: Method of Calculation            =     Diagonalization
redata: Divide and Conquer               =     T
redata: Electronic Temperature           =     0.0019  Ry
redata: Fix the spin of the system       =     F
redata: Dynamics option                  =     Verlet MD run
redata: Initial MD time step             =        1
redata:   Final MD time step             =        1
redata: Length of MD time step           =     1.0000  fs
redata: Initial Temperature of MD run    =     0.0000  K
redata: Perform a MD quench              =     F
redata: ***********************************************************************
Total number of electrons:   286.000000
Total ionic charge:   286.000000

* ProcessorY, Blocksize:    2  24

k-point displ. along   1 input, could be:     0.00    0.50
k-point displ. along   2 input, could be:     0.00    0.50
 Kpoints in:          364 . Kpoints trimmed:          352

siesta: k-grid: Number of k-points =   352
siesta: k-grid: Cutoff (effective) =     5.000 Ang
siesta: k-grid: Supercell and displacements
siesta: k-grid:   26   0   0      0.000
siesta: k-grid:    0  26   0      0.000
siesta: k-grid:    0   0   1      0.000
Naive supercell factors:     2    2    2

superc: Internal auxiliary supercell:     2 x     2 x     2  =       8
superc: Number of atoms, orbitals, and projectors:    576   7488   9216

* Maximum dynamic memory allocated =     6 MB

siesta:                 ==============================
                            Begin MD step =      1
                        ==============================

superc: Internal auxiliary supercell:     2 x     2 x     2  =       8
superc: Number of atoms, orbitals, and projectors:    576   7488   9216

outcell: Unit cell vectors (Ang):
       14.785000    0.000000    0.000000
        7.393000   12.805052    0.000000
        0.000000    0.000000   10.000000

outcell: Cell vector modules (Ang)   :   14.785000   14.786000   10.000000
outcell: Cell angles (23,13,12) (deg):     90.0000     90.0000     60.0000
outcell: Cell volume (Ang**3)        :   1893.2269
New_DM. Step:     1
Initializing Density Matrix...

iodm: Reading Density Matrix from files

InitMesh: MESH =   120 x   120 x    90 =     1296000
InitMesh: Mesh cutoff (required, used) =   200.000   223.865 Ry

* Maximum dynamic memory allocated =   201 MB

stepf: Fermi-Dirac step function

siesta: Program's energy decomposition (eV):
siesta: Ebs     =     -3883.358650
siesta: Eions   =     18146.897649
siesta: Ena     =      3930.206034
siesta: Ekin    =      7736.095607
siesta: Enl     =      -770.101519
siesta: DEna    =      -297.967605
siesta: DUscf   =        27.544359
siesta: DUext   =         0.000000
siesta: Exc     =     -4046.430044
siesta: eta*DQ  =         0.000000
siesta: Emadel  =         0.000000
siesta: Emeta   =         0.000000
siesta: Emolmec =         0.000000
siesta: Ekinion =         0.000000
siesta: Eharris =    -11567.550336
siesta: Etot    =    -11567.550817
siesta: FreeEng =    -11567.550817

siesta: iscf   Eharris(eV)      E_KS(eV)   FreeEng(eV)   dDmax  Ef(eV)
siesta:    1   -11567.5503   -11567.5508   -11567.5508  0.0006 -5.2845
timer: Routine,Calls,Time,% = IterSCF        1    6672.714  99.82
elaps: Routine,Calls,Wall,% = IterSCF        1     835.077  99.82
siesta:    2   -11567.5506   -11567.5503   -11567.5646  0.0004 -5.2869
siesta:    3   -11567.5504   -11567.5505   -11567.5647  0.0002 -5.2856
siesta:    4   -11567.5504   -11567.5504   -11567.5647  0.0001 -5.2850

siesta: E_KS(eV) =           -11567.5503

siesta: E_KS - E_eggbox =    -11567.5503

siesta: Atomic forces (eV/Ang):
----------------------------------------
   Tot    0.185832   -0.273414    0.000000
----------------------------------------
   Max    3.624138
   Res    0.599286    sqrt( Sum f_i^2 / 3N )
----------------------------------------
   Max    3.624138    constrained

Stress-tensor-Voigt (kbar):      -54.09      -53.35       -0.05       -0.30        0.00        0.00
(Free)E + p*V (eV/cell)   -11525.2291
Target enthalpy (eV/cell)   -11567.5647

siesta: Stress tensor (static) (eV/Ang**3):
        -0.033757   -0.000185    0.000000
        -0.000185   -0.033296    0.000000
         0.000000    0.000000   -0.000032

siesta: Pressure (static):         35.82758457  kBar

siesta: Stress tensor (total) (eV/Ang**3):
        -0.033757   -0.000185    0.000000
        -0.000185   -0.033296    0.000000
         0.000000    0.000000   -0.000032

siesta: Pressure (total):         35.82758457  kBar

siesta: Temp_ion =       0.000 K

* Maximum dynamic memory allocated =   215 MB

siesta: Program's energy decomposition (eV):
siesta: Ebs     =     -3883.324742
siesta: Eions   =     18146.897649
siesta: Ena     =      3930.206034
siesta: Ekin    =      7736.115569
siesta: Enl     =      -770.107499
siesta: DEna    =      -297.976655
siesta: DUscf   =        27.543739
siesta: DUext   =         0.000000
siesta: Exc     =     -4046.433883
siesta: eta*DQ  =         0.000000
siesta: Emadel  =         0.000000
siesta: Emeta   =         0.000000
siesta: Emolmec =         0.000000
siesta: Ekinion =         0.000000
siesta: Eharris =    -11567.550358
siesta: Etot    =    -11567.550344
siesta: FreeEng =    -11567.564666

siesta: Final energy (eV):
siesta:  Band Struct. =   -3883.324742
siesta:       Kinetic =    7736.115569
siesta:       Hartree =   22792.168500
siesta:    Ext. field =       0.000000
siesta:   Exch.-corr. =   -4046.433883
siesta:  Ion-electron =  -52701.743902
siesta:       Ion-ion =   14652.343372
siesta:       Ekinion =       0.000000
siesta:         Total =  -11567.550344

siesta: Atomic forces (eV/Ang):
siesta:      1    0.292652    0.144867    0.000000
siesta:      2   -0.006287   -0.018690    0.000000
siesta:      3    2.591578    1.495324    0.000000
siesta:      4   -0.007898    0.046266    0.000000
siesta:      5   -0.032553    0.016881    0.000000
siesta:      6    0.042919   -0.051595    0.000000
siesta:      7   -0.012393   -0.057075    0.000000
siesta:      8   -0.036384   -0.059436    0.000000
siesta:      9   -0.049083    0.076392    0.000000
siesta:     10    0.042879   -0.309854    0.000000
siesta:     11    0.148957    0.246712    0.000000
siesta:     12   -0.594940   -0.196418    0.000000
siesta:     13   -0.101071    0.212309    0.000000
siesta:     14   -0.055467   -0.022614    0.000000
siesta:     15    0.031697   -0.067612    0.000000
siesta:     16    0.492487    0.303697    0.000000
siesta:     17    0.160112   -3.624138    0.000000
siesta:     18   -0.495243   -0.295923    0.000000
siesta:     19    0.298348   -0.207739    0.000000
siesta:     20   -0.241828    0.110568    0.000000
siesta:     21    0.152294   -0.006049    0.000000
siesta:     22   -0.125197    0.064045    0.000000
siesta:     23   -0.115393   -0.113414    0.000000
siesta:     24    0.051570    0.613134    0.000000
siesta:     25   -3.089958    1.715906    0.000000
siesta:     26    0.529086    0.244223    0.000000
siesta:     27   -3.070026    1.966935    0.000000
siesta:     28    3.009844    1.741647    0.000000
siesta:     29    0.028017    0.610709    0.000000
siesta:     30    0.116609   -0.146779    0.000000
siesta:     31    0.026362    0.043101    0.000000
siesta:     32   -0.000128   -0.043060    0.000000
siesta:     33    0.006141   -0.034314    0.000000
siesta:     34    0.110487    0.091027    0.000000
siesta:     35   -0.485895   -0.314614    0.000000
siesta:     36   -0.031481    0.371748    0.000000
siesta:     37    0.554961   -0.306282    0.000000
siesta:     38   -0.080339    0.149546    0.000000
siesta:     39   -0.028344   -0.033482    0.000000
siesta:     40    0.066783    0.010926    0.000000
siesta:     41   -0.043615    0.018102    0.000000
siesta:     42    0.025269    0.013483    0.000000
siesta:     43   -0.011170   -0.298136    0.000000
siesta:     44    0.054211    0.102845    0.000000
siesta:     45    0.080568    0.016213    0.000000
siesta:     46   -0.008735    0.021492    0.000000
siesta:     47   -0.025179   -0.032157    0.000000
siesta:     48    0.021125    0.024547    0.000000
siesta:     49    0.025753   -0.136933    0.000000
siesta:     50   -0.154902   -0.036911    0.000000
siesta:     51   -0.011383    0.000511    0.000000
siesta:     52    0.171731    0.048356    0.000000
siesta:     53    0.603403   -0.304885    0.000000
siesta:     54   -0.030915   -3.510545    0.000000
siesta:     55   -0.493890   -0.435142    0.000000
siesta:     56    0.117820   -0.179488    0.000000
siesta:     57   -0.049312    0.056767    0.000000
siesta:     58   -0.095023    0.080973    0.000000
siesta:     59    0.007352   -0.011514    0.000000
siesta:     60   -0.008287   -0.000988    0.000000
siesta:     61    0.008471   -0.086223    0.000000
siesta:     62    0.014493   -0.116615    0.000000
siesta:     63   -0.020185   -0.067876    0.000000
siesta:     64    0.020039    0.048611    0.000000
siesta:     65   -0.055078   -0.007062    0.000000
siesta:     66    0.048614   -0.002666    0.000000
siesta:     67   -0.232966    0.172303    0.000000
siesta:     68    0.278211    0.018591    0.000000
siesta:     69   -0.006875   -0.018893    0.000000
siesta:     70   -0.016703   -0.007146    0.000000
siesta:     71    0.166125    0.113954    0.000000
siesta:     72   -0.287012   -0.123855    0.000000
siesta: ----------------------------------------
siesta:    Tot    0.185832   -0.273414    0.000000

siesta: Stress tensor (static) (eV/Ang**3):
siesta:    -0.033757   -0.000185    0.000000
siesta:    -0.000185   -0.033296    0.000000
siesta:     0.000000    0.000000   -0.000032

siesta: Cell volume =       1893.226895 Ang**3

siesta: Pressure (static):
siesta:                Solid            Molecule  Units
siesta:           0.00024355          0.00039728  Ry/Bohr**3
siesta:           0.02236158          0.03647681  eV/Ang**3
siesta:          35.82758457         58.44291911  kBar
(Free)E+ p_basis*V_orbitals  =      -11536.195140
(Free)Eharris+ p_basis*V_orbitals  =      -11536.195117

siesta: Electric dipole (a.u.)  =    0.000000    0.000000    0.000000
siesta: Electric dipole (Debye) =    0.000000    0.000000    0.000000

* Maximum dynamic memory allocated : Node    0 =   215 MB
* Maximum dynamic memory allocated : Node    1 =    77 MB
* Maximum dynamic memory allocated : Node    2 =    80 MB
* Maximum dynamic memory allocated : Node    3 =   203 MB
* Maximum dynamic memory allocated : Node    4 =   211 MB
* Maximum dynamic memory allocated : Node    5 =    76 MB
* Maximum dynamic memory allocated : Node    6 =    79 MB
* Maximum dynamic memory allocated : Node    7 =   195 MB

* Maximum memory occured during matrixMtoO                    

timer: CPU execution times:
timer:  Routine       Calls   Time/call    Tot.time        %
timer:  siesta            1   26662.669   26662.669   100.00
timer:  Setup             1       3.075       3.075     0.01
timer:  bands             1       0.009       0.009     0.00
timer:  writewave         1       0.018       0.018     0.00
timer:  KSV_init          1       0.001       0.001     0.00
timer:  IterMD            1   26651.425   26651.425    99.96
timer:  hsparse           1       0.397       0.397     0.00
timer:  overlap           1       4.699       4.699     0.02
timer:  IterSCF           4    6617.607   26470.427    99.28
timer:  kinefsm           2       2.451       4.902     0.02
timer:  nlefsm            2      19.767      39.534     0.15
timer:  DHSCF             5     109.339     546.694     2.05
timer:  DHSCF1            1       0.999       0.999     0.00
timer:  DHSCF2            1      40.605      40.605     0.15
timer:  REORD            42       0.010       0.438     0.00
timer:  POISON            6       2.269      13.613     0.05
timer:  DHSCF3            5      94.041     470.204     1.76
timer:  rhoofd            5      18.129      90.645     0.34
timer:  cellXC            5       3.494      17.472     0.07
timer:  vmat              5      48.179     240.897     0.90
timer:  MolMec            2       0.000       0.001     0.00
timer:  diagon            4    6502.968   26011.871    97.56
timer:  c-eigval       1408       6.703    9438.306    35.40
timer:  c-buildHS      1408       0.120     169.146     0.63
timer:  cdiag          2816       6.897   19420.906    72.84
timer:  cdiag1         2816       0.429    1207.940     4.53
timer:  cdiag2         2816       1.912    5385.506    20.20
timer:  cdiag3         2816       3.960   11152.607    41.83
timer:  cdiag4         2816       0.206     580.536     2.18
timer:  c-eigvec       1408       7.283   10254.440    38.46
timer:  c-buildD       1408       4.480    6307.655    23.66
timer:  DHSCF4            1      34.595      34.595     0.13
timer:  dfscf             1      32.134      32.134     0.12
timer:  overfsm           1       0.397       0.397     0.00
timer:  optical           1       7.144       7.144     0.03
  

elaps: ELAPSED times:
elaps:  Routine       Calls   Time/call    Tot.time        %
elaps:  siesta            1    3336.669    3336.669   100.00
elaps:  Setup             1       0.383       0.383     0.01
elaps:  bands             1       0.001       0.001     0.00
elaps:  writewave         1       0.002       0.002     0.00
elaps:  KSV_init          1       0.000       0.000     0.00
elaps:  IterMD            1    3335.264    3335.264    99.96
elaps:  hsparse           1       0.050       0.050     0.00
elaps:  overlap           1       0.976       0.976     0.03
elaps:  IterSCF           4     828.155    3312.621    99.28
elaps:  kinefsm           2       0.502       1.005     0.03
elaps:  nlefsm            2       2.482       4.964     0.15
elaps:  DHSCF             5      14.388      71.940     2.16
elaps:  DHSCF1            1       0.129       0.129     0.00
elaps:  DHSCF2            1       5.080       5.080     0.15
elaps:  REORD            42       0.001       0.055     0.00
elaps:  POISON            6       0.284       1.707     0.05
elaps:  DHSCF3            5      11.765      58.826     1.76
elaps:  rhoofd            5       3.970      19.852     0.59
elaps:  cellXC            5       0.437       2.183     0.07
elaps:  vmat              5       6.028      30.139     0.90
elaps:  MolMec            2       0.000       0.000     0.00
elaps:  diagon            4     813.842    3255.366    97.56
elaps:  c-eigval       1408       0.839    1180.904    35.39
elaps:  c-buildHS      1408       0.017      23.346     0.70
elaps:  cdiag          2816       0.848    2386.812    71.53
elaps:  cdiag1         2816       0.053     150.445     4.51
elaps:  cdiag2         2816       0.239     673.862    20.20
elaps:  cdiag3         2816       0.496    1397.274    41.88
elaps:  cdiag4         2816       0.026      72.999     2.19
elaps:  c-eigvec       1408       0.884    1245.009    37.31
elaps:  c-buildD       1408       0.588     827.843    24.81
elaps:  DHSCF4            1       7.867       7.867     0.24
elaps:  dfscf             1       7.394       7.394     0.22
elaps:  overfsm           1       0.054       0.054     0.00
elaps:  optical           1       0.000       0.000     0.00
  
>> End of run:  26-NOV-2015   0:15:26
