Siesta Version:                                        siesta-3.2-pl-3
Architecture  : x86_64-unknown-linux-gnu--unknown
Compiler flags: mpiifort -g -O2 -fPIC -xSSE4.1 -fp-model source -shared-intel 
PARALLEL version

* Running on    8 nodes in parallel
>> Start of run:  28-NOV-2015  13:12:16

                           ***********************       
                           *  WELCOME TO SIESTA  *       
                           ***********************       

reinit: Reading from standard input
************************** Dump of input data file ****************************
#(1) General system descriptors
SystemName            GRP_doping    # Descriptive name of the system
SystemLabel           GRP_doping    # Short name for naming files
%include STRUCT.fdf
%include KPT.fdf
%include BASIS.fdf
#%include TS.fdf # for transiesta calculation
#(4) DFT, Grid, SCF
XC.functional         GGA           # LDA or GGA (default = LDA)
XC.authors            PBE           # CA (Ceperley-Aldr) = PZ
                                    #    (Perdew-Zunger) - LDA - Default
                                    # PW92 (Perdew-Wang-92) - LDA
                                    # PBE (Perdew-Burke-Ernzerhof) - GGA
MeshCutoff            200.000000    Ry      # Default: 50.0 Ry ~ 0.444 Bohr
                                    #         100.0 Ry ~ 0.314 Bohr
MaxSCFIterations      500           # Default: 50
DM.MixingWeight       0.05          # Default: 0.25
DM.NumberPulay        10            # Default: 0
DM.PulayOnFile        F             # SystemLabel.P1, SystemLabel.P2
DM.Tolerance          1.d-4         # Default: 1.d-4
DM.UseSaveDM          .true.        # because of the bug
SCFMustConverge       .true.
NeglNonOverlapInt     F             # Default: F
#(5) Eigenvalue problem: order-N or diagonalization
SolutionMethod        Diagon        # or Transiesta
ElectronicTemperature 300.0 K       # Default: 300.0 K
#(6) Molecular dynamics and relaxations
#MD.TypeOfRun          CG            # Type of dynamics:
#MD.VariableCell       F
#MD.NumCGsteps         0           # 0 for single-point / 100 for gopt
#MD.MaxCGDispl         0.2 Bohr      # Default: 0.2 Bohr
#MD.MaxForceTol        0.02 eV/Ang   # Default: 0.04 eV/Ang
#MD.MaxStressTol       1.0 GPa       # Default: 1.0 GPa
# Geometry Constraints
#%block GeometryConstraints
#	position from 1 to 44
#%endblock GeometryConstraints
************************** End of input data file *****************************

reinit: -----------------------------------------------------------------------
reinit: System Name: GRP_doping
reinit: -----------------------------------------------------------------------
reinit: System Label: GRP_doping                                                  
reinit: -----------------------------------------------------------------------

initatom: Reading input for the pseudopotentials and atomic orbitals ----------
 Species number:            1  Label: C Atomic number:           6
 Species number:            2  Label: B Atomic number:           5
Ground state valence configuration:   2s02  2p02
Reading pseudopotential information in formatted form from C.psf

Valence configuration for pseudopotential generation:
2s( 2.00) rc: 1.54
2p( 2.00) rc: 1.54
3d( 0.00) rc: 1.54
4f( 0.00) rc: 1.54
Ground state valence configuration:   2s02  2p01
Reading pseudopotential information in formatted form from B.psf

Valence configuration for pseudopotential generation:
2s( 2.00) rc: 1.74
2p( 1.00) rc: 1.74
3d( 0.00) rc: 1.74
4f( 0.00) rc: 1.74
For C, standard SIESTA heuristics set lmxkb to 3
 (one more than the basis l, including polarization orbitals).
Use PS.lmax or PS.KBprojectors blocks to override.
For B, standard SIESTA heuristics set lmxkb to 3
 (one more than the basis l, including polarization orbitals).
Use PS.lmax or PS.KBprojectors blocks to override.

<basis_specs>
===============================================================================
C                    Z=   6    Mass=  12.010        Charge= 0.17977+309
Lmxo=1 Lmxkb= 3    BasisType=split      Semic=F
L=0  Nsemic=0  Cnfigmx=2
          n=1  nzeta=2  polorb=0
            splnorm:   0.15000    
               vcte:    0.0000    
               rinn:    0.0000    
                rcs:    0.0000      0.0000    
            lambdas:    1.0000      1.0000    
L=1  Nsemic=0  Cnfigmx=2
          n=1  nzeta=2  polorb=1
            splnorm:   0.15000    
               vcte:    0.0000    
               rinn:    0.0000    
                rcs:    0.0000      0.0000    
            lambdas:    1.0000      1.0000    
-------------------------------------------------------------------------------
L=0  Nkbl=1  erefs: 0.17977+309
L=1  Nkbl=1  erefs: 0.17977+309
L=2  Nkbl=1  erefs: 0.17977+309
L=3  Nkbl=1  erefs: 0.17977+309
===============================================================================
</basis_specs>

atom: Called for C                     (Z =   6)

read_vps: Pseudopotential generation method:
read_vps: ATM3      Troullier-Martins                       
Total valence charge:    4.00000

read_vps: Pseudopotential includes a core correction:
read_vps: Pseudo-core for xc-correction

xc_check: Exchange-correlation functional:
xc_check: GGA Perdew, Burke & Ernzerhof 1996
V l=0 = -2*Zval/r beyond r=  1.5227
V l=1 = -2*Zval/r beyond r=  1.5227
V l=2 = -2*Zval/r beyond r=  1.5227
V l=3 = -2*Zval/r beyond r=  1.5038
All V_l potentials equal beyond r=  1.5227
This should be close to max(r_c) in ps generation
All pots = -2*Zval/r beyond r=  1.5227

VLOCAL1: 99.0% of the norm of Vloc inside     18.722 Ry
VLOCAL1: 99.9% of the norm of Vloc inside     42.668 Ry
atom: Maximum radius for 4*pi*r*r*local-pseudopot. charge    1.83678
atom: Maximum radius for r*vlocal+2*Zval:    1.58088
GHOST: No ghost state for L =  0
GHOST: No ghost state for L =  1
GHOST: No ghost state for L =  2
GHOST: No ghost state for L =  3

KBgen: Kleinman-Bylander projectors: 
   l= 0   rc=  1.704034   el= -1.009801   Ekb=  5.335044   kbcos=  0.316824
   l= 1   rc=  1.704034   el= -0.388707   Ekb= -3.785862   kbcos= -0.366464
   l= 2   rc=  1.791422   el=  0.001971   Ekb= -0.970471   kbcos= -0.009212
   l= 3   rc=  1.859892   el=  0.003065   Ekb= -0.399525   kbcos= -0.001223

KBgen: Total number of  Kleinman-Bylander projectors:   16
atom: -------------------------------------------------------------------------

atom: SANKEY-TYPE ORBITALS:
atom: Selected multiple-zeta basis: split     

SPLIT: Orbitals with angular momentum L= 0

SPLIT: Basis orbitals for state 2s

SPLIT: PAO cut-off radius determined from an
SPLIT: energy shift=  0.007350 Ry

   izeta = 1
                 lambda =    1.000000
                     rc =    4.632753
                 energy =   -1.002270
                kinetic =    0.855760
    potential(screened) =   -1.858031
       potential(ionic) =   -5.417575

   izeta = 2
                 rmatch =    3.431921
              splitnorm =    0.150000
                 energy =   -0.867111
                kinetic =    1.300804
    potential(screened) =   -2.167915
       potential(ionic) =   -5.962684

SPLIT: Orbitals with angular momentum L= 1

SPLIT: Basis orbitals for state 2p

SPLIT: PAO cut-off radius determined from an
SPLIT: energy shift=  0.007350 Ry

   izeta = 1
                 lambda =    1.000000
                     rc =    5.658549
                 energy =   -0.381140
                kinetic =    2.399701
    potential(screened) =   -2.780841
       potential(ionic) =   -6.206085

   izeta = 2
                 rmatch =    3.653288
              splitnorm =    0.150000
                 energy =   -0.249149
                kinetic =    3.542762
    potential(screened) =   -3.791911
       potential(ionic) =   -7.581078

POLgen: Perturbative polarization orbital with L=  2

POLgen: Polarization orbital for state 2p

   izeta = 1
                     rc =    5.658549
                 energy =    1.109913
                kinetic =    2.304789
    potential(screened) =   -1.194876
       potential(ionic) =   -4.013592
atom: Total number of Sankey-type orbitals: 13

atm_pop: Valence configuration (for local Pseudopot. screening):
 2s( 2.00)                                                            
 2p( 2.00)                                                            
Vna: chval, zval:    4.00000   4.00000

Vna:  Cut-off radius for the neutral-atom potential:   5.658549
comcore: Pseudo-core radius Rcore=  1.791422

atom: _________________________________________________________________________

<basis_specs>
===============================================================================
B                    Z=   5    Mass=  10.810        Charge= 0.17977+309
Lmxo=1 Lmxkb= 3    BasisType=split      Semic=F
L=0  Nsemic=0  Cnfigmx=2
          n=1  nzeta=2  polorb=0
            splnorm:   0.15000    
               vcte:    0.0000    
               rinn:    0.0000    
                rcs:    0.0000      0.0000    
            lambdas:    1.0000      1.0000    
L=1  Nsemic=0  Cnfigmx=2
          n=1  nzeta=2  polorb=1
            splnorm:   0.15000    
               vcte:    0.0000    
               rinn:    0.0000    
                rcs:    0.0000      0.0000    
            lambdas:    1.0000      1.0000    
-------------------------------------------------------------------------------
L=0  Nkbl=1  erefs: 0.17977+309
L=1  Nkbl=1  erefs: 0.17977+309
L=2  Nkbl=1  erefs: 0.17977+309
L=3  Nkbl=1  erefs: 0.17977+309
===============================================================================
</basis_specs>

atom: Called for B                     (Z =   5)

read_vps: Pseudopotential generation method:
read_vps: ATM3      Troullier-Martins                       
Total valence charge:    3.00000

read_vps: Pseudopotential includes a core correction:
read_vps: Pseudo-core for xc-correction

xc_check: Exchange-correlation functional:
xc_check: GGA Perdew, Burke & Ernzerhof 1996
V l=0 = -2*Zval/r beyond r=  1.7165
V l=1 = -2*Zval/r beyond r=  1.7165
V l=2 = -2*Zval/r beyond r=  1.7165
V l=3 = -2*Zval/r beyond r=  1.6951
All V_l potentials equal beyond r=  1.7165
This should be close to max(r_c) in ps generation
All pots = -2*Zval/r beyond r=  1.7165

VLOCAL1: 99.0% of the norm of Vloc inside     14.733 Ry
VLOCAL1: 99.9% of the norm of Vloc inside     33.577 Ry
atom: Maximum radius for 4*pi*r*r*local-pseudopot. charge    2.04484
atom: Maximum radius for r*vlocal+2*Zval:    1.75994
GHOST: No ghost state for L =  0
GHOST: No ghost state for L =  1
GHOST: No ghost state for L =  2
GHOST: No ghost state for L =  3

KBgen: Kleinman-Bylander projectors: 
   l= 0   rc=  1.897051   el= -0.693730   Ekb=  4.595746   kbcos=  0.286105
   l= 1   rc=  1.920920   el= -0.265236   Ekb= -2.350715   kbcos= -0.315747
   l= 2   rc=  2.044840   el=  0.002055   Ekb= -0.690767   kbcos= -0.013822
   l= 3   rc=  2.149707   el=  0.003188   Ekb= -0.315358   kbcos= -0.002055

KBgen: Total number of  Kleinman-Bylander projectors:   16
atom: -------------------------------------------------------------------------

atom: SANKEY-TYPE ORBITALS:
atom: Selected multiple-zeta basis: split     

SPLIT: Orbitals with angular momentum L= 0

SPLIT: Basis orbitals for state 2s

SPLIT: PAO cut-off radius determined from an
SPLIT: energy shift=  0.007350 Ry

   izeta = 1
                 lambda =    1.000000
                     rc =    5.422032
                 energy =   -0.686029
                kinetic =    0.576707
    potential(screened) =   -1.262736
       potential(ionic) =   -3.271094

   izeta = 2
                 rmatch =    4.222573
              splitnorm =    0.150000
                 energy =   -0.602132
                kinetic =    0.858975
    potential(screened) =   -1.461107
       potential(ionic) =   -3.582536

SPLIT: Orbitals with angular momentum L= 1

SPLIT: Basis orbitals for state 2p

SPLIT: PAO cut-off radius determined from an
SPLIT: energy shift=  0.007350 Ry

   izeta = 1
                 lambda =    1.000000
                     rc =    6.790259
                 energy =   -0.258578
                kinetic =    1.481412
    potential(screened) =   -1.739989
       potential(ionic) =   -3.657461

   izeta = 2
                 rmatch =    4.608740
              splitnorm =    0.150000
                 energy =   -0.173757
                kinetic =    2.186690
    potential(screened) =   -2.360447
       potential(ionic) =   -4.464260

POLgen: Perturbative polarization orbital with L=  2

POLgen: Polarization orbital for state 2p

   izeta = 1
                     rc =    6.790259
                 energy =    0.684082
                kinetic =    1.471481
    potential(screened) =   -0.787399
       potential(ionic) =   -2.406985
atom: Total number of Sankey-type orbitals: 13

atm_pop: Valence configuration (for local Pseudopot. screening):
 2s( 2.00)                                                            
 2p( 1.00)                                                            
Vna: chval, zval:    3.00000   3.00000

Vna:  Cut-off radius for the neutral-atom potential:   6.790259
comcore: Pseudo-core radius Rcore=  2.122997

atom: _________________________________________________________________________

prinput: Basis input ----------------------------------------------------------

PAO.BasisType split     

%block ChemicalSpeciesLabel
    1    6 C                       # Species index, atomic number, species label
    2    5 B                       # Species index, atomic number, species label
%endblock ChemicalSpeciesLabel

%block PAO.Basis                 # Define Basis set
C                     2                    # Species label, number of l-shells
 n=2   0   2                         # n, l, Nzeta 
   4.633      3.432   
   1.000      1.000   
 n=2   1   2 P   1                   # n, l, Nzeta, Polarization, NzetaPol
   5.659      3.653   
   1.000      1.000   
B                     2                    # Species label, number of l-shells
 n=2   0   2                         # n, l, Nzeta 
   5.422      4.223   
   1.000      1.000   
 n=2   1   2 P   1                   # n, l, Nzeta, Polarization, NzetaPol
   6.790      4.609   
   1.000      1.000   
%endblock PAO.Basis

prinput: ----------------------------------------------------------------------

coor:   Atomic-coordinates input format  =     Cartesian coordinates
coor:                                          (in Angstroms)

siesta: Atomic coordinates (Bohr) and species
siesta:      2.23554   1.32097   0.00000  1        1
siesta:     32.50328  21.48508   0.00000  1        2
siesta:     34.83141  22.82873   0.00000  1        3
siesta:     34.83116  17.45226   0.00000  1        4
siesta:     37.15930  18.79590   0.00000  1        5
siesta:     32.50291  13.41944   0.00000  1        6
siesta:     34.83104  14.76308   0.00000  1        7
siesta:     30.17465   9.38661   0.00000  1        8
siesta:     32.50278  10.73026   0.00000  1        9
siesta:     27.84639   5.35379   0.00000  1       10
siesta:     30.17453   6.69743   0.00000  1       11
siesta:     27.84714  21.48508   0.00000  1       12
siesta:     30.17527  22.82873   0.00000  1       13
siesta:      6.89168   1.32097   0.00000  1       14
siesta:      9.21981   2.66461   0.00000  1       15
siesta:     11.54782   1.32097   0.00000  1       16
siesta:     13.87595   2.66461   0.00000  1       17
siesta:     16.20396   1.32097   0.00000  1       18
siesta:     23.19013   2.66461   0.00000  1       19
siesta:     25.51813   1.32097   0.00000  1       20
siesta:     27.84627   2.66461   0.00000  1       21
siesta:      4.56380   5.35379   0.00000  1       22
siesta:      6.89193   6.69743   0.00000  1       23
siesta:      9.21994   5.35379   0.00000  1       24
siesta:     11.54807   6.69743   0.00000  1       25
siesta:     13.87608   5.35379   0.00000  1       26
siesta:     16.20421   6.69743   0.00000  1       27
siesta:     18.53411   5.35379   0.00000  1       28
siesta:     20.86224   6.69743   0.00000  1       29
siesta:     23.19025   5.35379   0.00000  1       30
siesta:     25.51838   6.69743   0.00000  1       31
siesta:      9.22019  10.73026   0.00000  1       32
siesta:     11.54820   9.38661   0.00000  1       33
siesta:     13.87633  10.73026   0.00000  1       34
siesta:     18.53247  10.73026   0.00000  1       35
siesta:     20.86237   9.38661   0.00000  1       36
siesta:     23.19050  10.73026   0.00000  1       37
siesta:      9.22031  13.41944   0.00000  1       38
siesta:     11.54845  14.76308   0.00000  1       39
siesta:     13.87645  13.41944   0.00000  1       40
siesta:     16.20459  14.76308   0.00000  1       41
siesta:     18.53448  13.41944   0.00000  1       42
siesta:     20.86262  14.76308   0.00000  1       43
siesta:     13.87670  18.79590   0.00000  1       44
siesta:     16.20471  17.45226   0.00000  1       45
siesta:     18.53284  18.79590   0.00000  1       46
siesta:     13.87683  21.48508   0.00000  1       47
siesta:     16.20496  22.82873   0.00000  1       48
siesta:     18.53486  21.48508   0.00000  1       49
siesta:     20.86299  22.82873   0.00000  1       50
siesta:     27.84664  10.73026   0.00000  1       51
siesta:     23.19063  13.41944   0.00000  1       52
siesta:     25.51876  14.76308   0.00000  1       53
siesta:     23.19088  18.79590   0.00000  1       54
siesta:     27.84677  13.41944   0.00000  1       55
siesta:     30.17490  14.76308   0.00000  1       56
siesta:     25.51888  17.45226   0.00000  1       57
siesta:     27.84702  18.79590   0.00000  1       58
siesta:     23.19100  21.48508   0.00000  1       59
siesta:     25.51913  22.82873   0.00000  1       60
siesta:     32.50316  18.79590   0.00000  1       61
siesta:     37.16131  21.48508   0.00000  1       62
siesta:     39.48945  22.82873   0.00000  1       63
siesta:      4.56367   2.66461   0.00000  2       64
siesta:     18.53210   2.66461   0.00000  2       65
siesta:     20.86199   1.32097   0.00000  2       66
siesta:      6.89205   9.38661   0.00000  2       67
siesta:     16.20434   9.38661   0.00000  2       68
siesta:     11.54857  17.45226   0.00000  2       69
siesta:     25.51851   9.38661   0.00000  2       70
siesta:     20.86274  17.45226   0.00000  2       71
siesta:     30.17503  17.45226   0.00000  2       72

siesta: System type = slab      

initatomlists: Number of atoms, orbitals, and projectors:     72   936  1152

siesta: ******************** Simulation parameters ****************************
siesta:
siesta: The following are some of the parameters of the simulation.
siesta: A complete list of the parameters used, including default values,
siesta: can be found in file out.fdf
siesta:
redata: Non-Collinear-spin run           =     F
redata: SpinPolarized (Up/Down) run      =     F
redata: Number of spin components        =     1
redata: Long output                      =     F
redata: Number of Atomic Species         =        2
redata: Charge density info will appear in .RHO file
redata: Write Mulliken Pop.              =     NO
redata: Mesh Cutoff                      =   200.0000  Ry
redata: Net charge of the system         =     0.0000 |e|
redata: Max. number of SCF Iter          =      500
redata: SCF convergence failure will abort job
redata: Performing Pulay mixing using    =    10 iterations
redata: Mix DM in first SCF step ?       =     F
redata: Write Pulay info on disk?        =     F
redata: Discard 1st Pulay DM after  kick =     F
redata: New DM Mixing Weight             =     0.0500
redata: New DM Occupancy tolerance       = 0.000000000001
redata: No kicks to SCF
redata: DM Mixing Weight for Kicks       =     0.5000
redata: DM Tolerance for SCF             =     0.000100
redata: Require Energy convergence for SCF =     F
redata: DM Energy tolerance for SCF      =     0.000100 eV
redata: Require Harris convergence for SCF =     F
redata: DM Harris energy tolerance for SCF =     0.000100 eV
redata: Using Saved Data (generic)   =     F
redata: Use continuation files for DM    =     T
redata: Neglect nonoverlap interactions  =     F
redata: Method of Calculation            =     Diagonalization
redata: Divide and Conquer               =     T
redata: Electronic Temperature           =     0.0019  Ry
redata: Fix the spin of the system       =     F
redata: Dynamics option                  =     Verlet MD run
redata: Initial MD time step             =        1
redata:   Final MD time step             =        1
redata: Length of MD time step           =     1.0000  fs
redata: Initial Temperature of MD run    =     0.0000  K
redata: Perform a MD quench              =     F
redata: ***********************************************************************
Total number of electrons:   279.000000
Total ionic charge:   279.000000

* ProcessorY, Blocksize:    2  24

k-point displ. along   1 input, could be:     0.00    0.50
k-point displ. along   2 input, could be:     0.00    0.50
 Kpoints in:          364 . Kpoints trimmed:          352

siesta: k-grid: Number of k-points =   352
siesta: k-grid: Cutoff (effective) =     5.000 Ang
siesta: k-grid: Supercell and displacements
siesta: k-grid:   26   0   0      0.000
siesta: k-grid:    0  26   0      0.000
siesta: k-grid:    0   0   1      0.000
Naive supercell factors:     2    2    2

superc: Internal auxiliary supercell:     2 x     2 x     2  =       8
superc: Number of atoms, orbitals, and projectors:    576   7488   9216

* Maximum dynamic memory allocated =     6 MB

siesta:                 ==============================
                            Begin MD step =      1
                        ==============================

superc: Internal auxiliary supercell:     2 x     2 x     2  =       8
superc: Number of atoms, orbitals, and projectors:    576   7488   9216

outcell: Unit cell vectors (Ang):
       14.785000    0.000000    0.000000
        7.393000   12.805052    0.000000
        0.000000    0.000000   10.000000

outcell: Cell vector modules (Ang)   :   14.785000   14.786000   10.000000
outcell: Cell angles (23,13,12) (deg):     90.0000     90.0000     60.0000
outcell: Cell volume (Ang**3)        :   1893.2269
New_DM. Step:     1
Initializing Density Matrix...

InitMesh: MESH =   120 x   120 x    90 =     1296000
InitMesh: Mesh cutoff (required, used) =   200.000   223.865 Ry

* Maximum dynamic memory allocated =   208 MB

stepf: Fermi-Dirac step function

siesta: Program's energy decomposition (eV):
siesta: Ebs     =     -4460.491561
siesta: Eions   =     17250.500670
siesta: Ena     =      3769.800532
siesta: Ekin    =      5903.534022
siesta: Enl     =       294.313139
siesta: DEna    =        -0.000010
siesta: DUscf   =         0.000000
siesta: DUext   =         0.000000
siesta: Exc     =     -3961.818879
siesta: eta*DQ  =         0.000000
siesta: Emadel  =         0.000000
siesta: Emeta   =         0.000000
siesta: Emolmec =         0.000000
siesta: Ekinion =         0.000000
siesta: Eharris =    -11172.505295
siesta: Etot    =    -11244.671866
siesta: FreeEng =    -11244.671866

siesta: iscf   Eharris(eV)      E_KS(eV)   FreeEng(eV)   dDmax  Ef(eV)
siesta:    1   -11172.5053   -11244.6719   -11244.6719  1.8850 -8.0942
timer: Routine,Calls,Time,% = IterSCF        1    6740.026  99.83
elaps: Routine,Calls,Wall,% = IterSCF        1     843.896  99.87
siesta:    2   -11188.0743   -11125.5500   -11125.5835  0.5349 -3.9416
siesta:    3   -11152.7989   -11161.9030   -11161.9348  0.4727 -5.3990
siesta:    4   -11150.3176   -11161.3048   -11161.3197  0.4552 -5.4331
siesta:    5   -11146.6475   -11154.5823   -11154.6044  0.3055 -5.7495
siesta:    6   -11146.5538   -11147.6400   -11147.6649  0.1901 -5.7053
siesta:    7   -11147.2124   -11142.3220   -11142.3475  0.1274 -5.8878
siesta:    8   -11145.9843   -11141.9144   -11141.9465  0.1097 -5.8928
siesta:    9   -11144.7139   -11141.6974   -11141.7257  0.0820 -5.9322
siesta:   10   -11144.3838   -11141.6656   -11141.6961  0.0628 -5.9556
siesta:   11   -11144.2555   -11142.1605   -11142.1917  0.0490 -5.9703
siesta:   12   -11144.2291   -11142.3743   -11142.4045  0.0418 -5.9692
siesta:   13   -11144.2060   -11143.0348   -11143.0651  0.0273 -5.9542
siesta:   14   -11144.2008   -11143.7189   -11143.7499  0.0151 -5.9461
siesta:   15   -11144.1910   -11144.0839   -11144.1154  0.0073 -5.9392
siesta:   16   -11144.1851   -11144.1757   -11144.2064  0.0061 -5.9374
siesta:   17   -11144.1838   -11144.2604   -11144.2907  0.0035 -5.9383
siesta:   18   -11144.1828   -11144.2131   -11144.2435  0.0022 -5.9369
siesta:   19   -11144.1823   -11144.1896   -11144.2199  0.0014 -5.9375
siesta:   20   -11144.1818   -11144.1985   -11144.2287  0.0010 -5.9386
siesta:   21   -11144.1818   -11144.2067   -11144.2370  0.0006 -5.9386
siesta:   22   -11144.1818   -11144.2012   -11144.2314  0.0005 -5.9387
siesta:   23   -11144.1817   -11144.2073   -11144.2376  0.0003 -5.9386
siesta:   24   -11144.1817   -11144.2074   -11144.2376  0.0002 -5.9385
siesta:   25   -11144.1817   -11144.2007   -11144.2310  0.0002 -5.9385
siesta:   26   -11144.1817   -11144.1904   -11144.2206  0.0001 -5.9386

siesta: E_KS(eV) =           -11144.1887

siesta: E_KS - E_eggbox =    -11144.1887

siesta: Atomic forces (eV/Ang):
----------------------------------------
   Tot    0.187517   -0.145497    0.000000
----------------------------------------
   Max    3.656810
   Res    1.281341    sqrt( Sum f_i^2 / 3N )
----------------------------------------
   Max    3.656810    constrained

Stress-tensor-Voigt (kbar):     -119.87     -117.74       -0.25        0.00        0.00        0.00
(Free)E + p*V (eV/cell)   -11050.5309
Target enthalpy (eV/cell)   -11144.2190

siesta: Stress tensor (static) (eV/Ang**3):
        -0.074814    0.000003    0.000000
         0.000003   -0.073486    0.000000
         0.000000    0.000000   -0.000157

siesta: Pressure (static):         79.28600969  kBar

siesta: Stress tensor (total) (eV/Ang**3):
        -0.074814    0.000003    0.000000
         0.000003   -0.073486    0.000000
         0.000000    0.000000   -0.000157

siesta: Pressure (total):         79.28600969  kBar

siesta: Temp_ion =       0.000 K

* Maximum dynamic memory allocated =   223 MB

siesta: Program's energy decomposition (eV):
siesta: Ebs     =     -3690.427185
siesta: Eions   =     17250.500670
siesta: Ena     =      3769.800532
siesta: Ekin    =      7406.544914
siesta: Enl     =      -691.329370
siesta: DEna    =      -341.625484
siesta: DUscf   =        36.553306
siesta: DUext   =         0.000000
siesta: Exc     =     -4073.631933
siesta: eta*DQ  =         0.000000
siesta: Emadel  =         0.000000
siesta: Emeta   =         0.000000
siesta: Emolmec =         0.000000
siesta: Ekinion =         0.000000
siesta: Eharris =    -11144.181746
siesta: Etot    =    -11144.188704
siesta: FreeEng =    -11144.218951

siesta: Final energy (eV):
siesta:  Band Struct. =   -3690.427185
siesta:       Kinetic =    7406.544914
siesta:       Hartree =   21696.471759
siesta:    Ext. field =       0.000000
siesta:   Exch.-corr. =   -4073.631933
siesta:  Ion-electron =  -50130.765097
siesta:       Ion-ion =   13957.191653
siesta:       Ekinion =       0.000000
siesta:         Total =  -11144.188704

siesta: Atomic forces (eV/Ang):
siesta:      1   -3.166000   -1.847709    0.000000
siesta:      2    1.556164   -1.172158    0.000000
siesta:      3    0.469743   -3.150498    0.000000
siesta:      4    0.092796    0.980414    0.000000
siesta:      5   -2.577934    1.673858    0.000000
siesta:      6   -1.081423   -0.556776    0.000000
siesta:      7    0.085627    0.166092    0.000000
siesta:      8   -0.273007    1.450026    0.000000
siesta:      9   -2.853152    1.536898    0.000000
siesta:     10   -0.564260    0.036569    0.000000
siesta:     11    0.560612   -0.107261    0.000000
siesta:     12   -0.474916   -0.475943    0.000000
siesta:     13   -1.005545    1.009773    0.000000
siesta:     14    3.231344   -2.198022    0.000000
siesta:     15    0.298266   -0.837741    0.000000
siesta:     16   -0.084175    0.188566    0.000000
siesta:     17   -0.356606   -0.901644    0.000000
siesta:     18   -3.523728   -1.865775    0.000000
siesta:     19    3.002021    1.352343    0.000000
siesta:     20    0.043123    0.559880    0.000000
siesta:     21    0.555983   -1.031007    0.000000
siesta:     22    0.167292    3.408910    0.000000
siesta:     23   -0.469172   -3.138320    0.000000
siesta:     24   -0.017314   -0.089098    0.000000
siesta:     25    0.033551   -0.780407    0.000000
siesta:     26   -0.020364   -0.097438    0.000000
siesta:     27    0.562354   -2.951911    0.000000
siesta:     28   -0.686688    3.489012    0.000000
siesta:     29   -1.032124    0.275771    0.000000
siesta:     30    1.326650   -0.852713    0.000000
siesta:     31    0.117657   -3.480186    0.000000
siesta:     32    2.890565    1.474642    0.000000
siesta:     33    0.016618    1.625818    0.000000
siesta:     34   -2.879097    1.483258    0.000000
siesta:     35    2.805416    1.555774    0.000000
siesta:     36    0.134047    1.256398    0.000000
siesta:     37   -2.889665    1.642627    0.000000
siesta:     38    1.111354   -0.404695    0.000000
siesta:     39   -0.014707   -3.200286    0.000000
siesta:     40   -0.972692   -0.394645    0.000000
siesta:     41   -0.111828    0.022385    0.000000
siesta:     42    0.917779   -0.616180    0.000000
siesta:     43    0.040455   -3.128648    0.000000
siesta:     44    2.863004    1.462775    0.000000
siesta:     45   -0.302864    0.979911    0.000000
siesta:     46   -2.786813    2.116201    0.000000
siesta:     47    0.207130   -0.267175    0.000000
siesta:     48   -0.416678    0.837077    0.000000
siesta:     49   -0.656068   -0.800348    0.000000
siesta:     50    0.587873    0.818064    0.000000
siesta:     51    2.933315    1.566805    0.000000
siesta:     52   -0.907566   -0.495425    0.000000
siesta:     53    0.006896   -0.043658    0.000000
siesta:     54    2.991099    1.718847    0.000000
siesta:     55    1.010206   -0.485475    0.000000
siesta:     56   -0.065703   -3.233484    0.000000
siesta:     57    0.028520    1.073434    0.000000
siesta:     58   -3.062642    1.719042    0.000000
siesta:     59    0.601334   -0.482912    0.000000
siesta:     60   -0.087178    0.441127    0.000000
siesta:     61    2.668804    1.929951    0.000000
siesta:     62   -1.243197   -0.958495    0.000000
siesta:     63    0.516998    0.192500    0.000000
siesta:     64   -0.300644   -0.082049    0.000000
siesta:     65   -3.294725    2.045381    0.000000
siesta:     66    3.656810   -2.223221    0.000000
siesta:     67    0.166463   -0.007509    0.000000
siesta:     68   -0.162566    0.006499    0.000000
siesta:     69   -0.002749    0.065290    0.000000
siesta:     70    0.149692   -0.042459    0.000000
siesta:     71    0.037419    0.063620    0.000000
siesta:     72    0.086324    0.030234    0.000000
siesta: ----------------------------------------
siesta:    Tot    0.187517   -0.145497    0.000000

siesta: Stress tensor (static) (eV/Ang**3):
siesta:    -0.074814    0.000003    0.000000
siesta:     0.000003   -0.073486    0.000000
siesta:     0.000000    0.000000   -0.000157

siesta: Cell volume =       1893.226895 Ang**3

siesta: Pressure (static):
siesta:                Solid            Molecule  Units
siesta:           0.00053896          0.00047802  Ry/Bohr**3
siesta:           0.04948590          0.04389026  eV/Ang**3
siesta:          79.28600969         70.32071157  kBar
(Free)E+ p_basis*V_orbitals  =      -11110.637752
(Free)Eharris+ p_basis*V_orbitals  =      -11110.629113

siesta: Electric dipole (a.u.)  =    0.000000    0.000000    0.000000
siesta: Electric dipole (Debye) =    0.000000    0.000000    0.000000

* Maximum dynamic memory allocated : Node    0 =   221 MB
* Maximum dynamic memory allocated : Node    1 =    80 MB
* Maximum dynamic memory allocated : Node    2 =    84 MB
* Maximum dynamic memory allocated : Node    3 =   211 MB
* Maximum dynamic memory allocated : Node    4 =   223 MB
* Maximum dynamic memory allocated : Node    5 =    81 MB
* Maximum dynamic memory allocated : Node    6 =    83 MB
* Maximum dynamic memory allocated : Node    7 =   205 MB

* Maximum memory occured during matrixMtoO                    

timer: CPU execution times:
timer:  Routine       Calls   Time/call    Tot.time        %
timer:  siesta            1  173040.191  173040.191   100.00
timer:  Setup             1       3.859       3.859     0.00
timer:  bands             1       0.020       0.020     0.00
timer:  writewave         1       0.043       0.043     0.00
timer:  KSV_init          1       0.005       0.005     0.00
timer:  IterMD            1  173028.400  173028.400    99.99
timer:  hsparse           1       0.396       0.396     0.00
timer:  overlap           1       6.397       6.397     0.00
timer:  IterSCF          26    6647.359  172831.342    99.88
timer:  kinefsm           2       3.315       6.631     0.00
timer:  nlefsm            2      20.207      40.414     0.02
timer:  DHSCF            27     103.894    2805.132     1.62
timer:  DHSCF1            1       0.993       0.993     0.00
timer:  DHSCF2            1      41.626      41.626     0.02
timer:  REORD           218       0.010       2.244     0.00
timer:  POISON           28       2.243      62.811     0.04
timer:  DHSCF3           27     100.878    2723.715     1.57
timer:  rhoofd           27      19.772     533.832     0.31
timer:  cellXC           27       3.506      94.659     0.05
timer:  vmat             27      51.925    1401.965     0.81
timer:  MolMec            2       0.000       0.000     0.00
timer:  diagon           26    6541.767  170085.947    98.29
timer:  c-eigval       9152       6.678   61113.904    35.32
timer:  c-buildHS      9152       0.122    1116.169     0.65
timer:  cdiag         18304       6.882  125972.670    72.80
timer:  cdiag1        18304       0.428    7830.902     4.53
timer:  cdiag2        18304       1.903   34827.134    20.13
timer:  cdiag3        18304       3.950   72297.825    41.78
timer:  cdiag4        18304       0.229    4192.354     2.42
timer:  c-eigvec       9152       7.281   66632.068    38.51
timer:  c-buildD       9152       4.618   42263.821    24.42
timer:  DHSCF4            1      37.311      37.311     0.02
timer:  dfscf             1      34.725      34.725     0.02
timer:  overfsm           1       0.428       0.428     0.00
timer:  optical           1       6.979       6.979     0.00
  

elaps: ELAPSED times:
elaps:  Routine       Calls   Time/call    Tot.time        %
elaps:  siesta            1   21655.139   21655.139   100.00
elaps:  Setup             1       0.499       0.499     0.00
elaps:  bands             1       0.002       0.002     0.00
elaps:  writewave         1       0.006       0.006     0.00
elaps:  KSV_init          1       0.001       0.001     0.00
elaps:  IterMD            1   21653.640   21653.640    99.99
elaps:  hsparse           1       0.050       0.050     0.00
elaps:  overlap           1       0.529       0.529     0.00
elaps:  IterSCF          26     831.902   21629.450    99.88
elaps:  kinefsm           2       0.278       0.556     0.00
elaps:  nlefsm            2       2.613       5.226     0.02
elaps:  DHSCF            27      13.132     354.554     1.64
elaps:  DHSCF1            1       0.128       0.128     0.00
elaps:  DHSCF2            1       5.203       5.203     0.02
elaps:  REORD           218       0.001       0.301     0.00
elaps:  POISON           28       0.280       7.846     0.04
elaps:  DHSCF3           27      12.621     340.758     1.57
elaps:  rhoofd           27       4.205     113.540     0.52
elaps:  cellXC           27       0.438      11.826     0.05
elaps:  vmat             27       6.496     175.394     0.81
elaps:  MolMec            2       0.000       0.000     0.00
elaps:  diagon           26     818.683   21285.759    98.29
elaps:  c-eigval       9152       0.836    7646.617    35.31
elaps:  c-buildHS      9152       0.017     151.897     0.70
elaps:  cdiag         18304       0.850   15566.522    71.88
elaps:  cdiag1        18304       0.053     971.889     4.49
elaps:  cdiag2        18304       0.238    4357.637    20.12
elaps:  cdiag3        18304       0.495    9058.409    41.83
elaps:  cdiag4        18304       0.029     536.035     2.48
elaps:  c-eigvec       9152       0.894    8182.609    37.79
elaps:  c-buildD       9152       0.595    5446.059    25.15
elaps:  DHSCF4            1       8.265       8.265     0.04
elaps:  dfscf             1       7.759       7.759     0.04
elaps:  overfsm           1       0.053       0.053     0.00
elaps:  optical           1       0.001       0.001     0.00
  
>> End of run:  28-NOV-2015  19:13:11
