Siesta Version:                                        siesta-3.2-pl-3
Architecture  : x86_64-unknown-linux-gnu--unknown
Compiler flags: mpiifort -g -O2 -fPIC -xSSE4.1 -fp-model source -shared-intel 
PARALLEL version

* Running on    8 nodes in parallel
>> Start of run:   3-DEC-2015  23:52:48

                           ***********************       
                           *  WELCOME TO SIESTA  *       
                           ***********************       

reinit: Reading from standard input
************************** Dump of input data file ****************************
#(1) General system descriptors
SystemName            GRP_doping    # Descriptive name of the system
SystemLabel           GRP_doping    # Short name for naming files
%include STRUCT.fdf
%include KPT.fdf
%include BASIS.fdf
#%include TS.fdf # for transiesta calculation
#(4) DFT, Grid, SCF
XC.functional         GGA           # LDA or GGA (default = LDA)
XC.authors            PBE           # CA (Ceperley-Aldr) = PZ
                                    #    (Perdew-Zunger) - LDA - Default
                                    # PW92 (Perdew-Wang-92) - LDA
                                    # PBE (Perdew-Burke-Ernzerhof) - GGA
MeshCutoff            200.000000    Ry      # Default: 50.0 Ry ~ 0.444 Bohr
                                    #         100.0 Ry ~ 0.314 Bohr
MaxSCFIterations      500           # Default: 50
DM.MixingWeight       0.05          # Default: 0.25
DM.NumberPulay        10            # Default: 0
DM.PulayOnFile        F             # SystemLabel.P1, SystemLabel.P2
DM.Tolerance          1.d-4         # Default: 1.d-4
DM.UseSaveDM          .true.        # because of the bug
SCFMustConverge       .true.
NeglNonOverlapInt     F             # Default: F
#(5) Eigenvalue problem: order-N or diagonalization
SolutionMethod        Diagon        # or Transiesta
ElectronicTemperature 300.0 K       # Default: 300.0 K
#(6) Molecular dynamics and relaxations
#MD.TypeOfRun          CG            # Type of dynamics:
#MD.VariableCell       F
#MD.NumCGsteps         0           # 0 for single-point / 100 for gopt
#MD.MaxCGDispl         0.2 Bohr      # Default: 0.2 Bohr
#MD.MaxForceTol        0.02 eV/Ang   # Default: 0.04 eV/Ang
#MD.MaxStressTol       1.0 GPa       # Default: 1.0 GPa
# Geometry Constraints
#%block GeometryConstraints
#	position from 1 to 44
#%endblock GeometryConstraints
************************** End of input data file *****************************

reinit: -----------------------------------------------------------------------
reinit: System Name: GRP_doping
reinit: -----------------------------------------------------------------------
reinit: System Label: GRP_doping                                                  
reinit: -----------------------------------------------------------------------

initatom: Reading input for the pseudopotentials and atomic orbitals ----------
 Species number:            1  Label: C Atomic number:           6
 Species number:            2  Label: B Atomic number:           5
Ground state valence configuration:   2s02  2p02
Reading pseudopotential information in formatted form from C.psf

Valence configuration for pseudopotential generation:
2s( 2.00) rc: 1.54
2p( 2.00) rc: 1.54
3d( 0.00) rc: 1.54
4f( 0.00) rc: 1.54
Ground state valence configuration:   2s02  2p01
Reading pseudopotential information in formatted form from B.psf

Valence configuration for pseudopotential generation:
2s( 2.00) rc: 1.74
2p( 1.00) rc: 1.74
3d( 0.00) rc: 1.74
4f( 0.00) rc: 1.74
For C, standard SIESTA heuristics set lmxkb to 3
 (one more than the basis l, including polarization orbitals).
Use PS.lmax or PS.KBprojectors blocks to override.
For B, standard SIESTA heuristics set lmxkb to 3
 (one more than the basis l, including polarization orbitals).
Use PS.lmax or PS.KBprojectors blocks to override.

<basis_specs>
===============================================================================
C                    Z=   6    Mass=  12.010        Charge= 0.17977+309
Lmxo=1 Lmxkb= 3    BasisType=split      Semic=F
L=0  Nsemic=0  Cnfigmx=2
          n=1  nzeta=2  polorb=0
            splnorm:   0.15000    
               vcte:    0.0000    
               rinn:    0.0000    
                rcs:    0.0000      0.0000    
            lambdas:    1.0000      1.0000    
L=1  Nsemic=0  Cnfigmx=2
          n=1  nzeta=2  polorb=1
            splnorm:   0.15000    
               vcte:    0.0000    
               rinn:    0.0000    
                rcs:    0.0000      0.0000    
            lambdas:    1.0000      1.0000    
-------------------------------------------------------------------------------
L=0  Nkbl=1  erefs: 0.17977+309
L=1  Nkbl=1  erefs: 0.17977+309
L=2  Nkbl=1  erefs: 0.17977+309
L=3  Nkbl=1  erefs: 0.17977+309
===============================================================================
</basis_specs>

atom: Called for C                     (Z =   6)

read_vps: Pseudopotential generation method:
read_vps: ATM3      Troullier-Martins                       
Total valence charge:    4.00000

read_vps: Pseudopotential includes a core correction:
read_vps: Pseudo-core for xc-correction

xc_check: Exchange-correlation functional:
xc_check: GGA Perdew, Burke & Ernzerhof 1996
V l=0 = -2*Zval/r beyond r=  1.5227
V l=1 = -2*Zval/r beyond r=  1.5227
V l=2 = -2*Zval/r beyond r=  1.5227
V l=3 = -2*Zval/r beyond r=  1.5038
All V_l potentials equal beyond r=  1.5227
This should be close to max(r_c) in ps generation
All pots = -2*Zval/r beyond r=  1.5227

VLOCAL1: 99.0% of the norm of Vloc inside     18.722 Ry
VLOCAL1: 99.9% of the norm of Vloc inside     42.668 Ry
atom: Maximum radius for 4*pi*r*r*local-pseudopot. charge    1.83678
atom: Maximum radius for r*vlocal+2*Zval:    1.58088
GHOST: No ghost state for L =  0
GHOST: No ghost state for L =  1
GHOST: No ghost state for L =  2
GHOST: No ghost state for L =  3

KBgen: Kleinman-Bylander projectors: 
   l= 0   rc=  1.704034   el= -1.009801   Ekb=  5.335044   kbcos=  0.316824
   l= 1   rc=  1.704034   el= -0.388707   Ekb= -3.785862   kbcos= -0.366464
   l= 2   rc=  1.791422   el=  0.001971   Ekb= -0.970471   kbcos= -0.009212
   l= 3   rc=  1.859892   el=  0.003065   Ekb= -0.399525   kbcos= -0.001223

KBgen: Total number of  Kleinman-Bylander projectors:   16
atom: -------------------------------------------------------------------------

atom: SANKEY-TYPE ORBITALS:
atom: Selected multiple-zeta basis: split     

SPLIT: Orbitals with angular momentum L= 0

SPLIT: Basis orbitals for state 2s

SPLIT: PAO cut-off radius determined from an
SPLIT: energy shift=  0.007350 Ry

   izeta = 1
                 lambda =    1.000000
                     rc =    4.632753
                 energy =   -1.002270
                kinetic =    0.855760
    potential(screened) =   -1.858031
       potential(ionic) =   -5.417575

   izeta = 2
                 rmatch =    3.431921
              splitnorm =    0.150000
                 energy =   -0.867111
                kinetic =    1.300804
    potential(screened) =   -2.167915
       potential(ionic) =   -5.962684

SPLIT: Orbitals with angular momentum L= 1

SPLIT: Basis orbitals for state 2p

SPLIT: PAO cut-off radius determined from an
SPLIT: energy shift=  0.007350 Ry

   izeta = 1
                 lambda =    1.000000
                     rc =    5.658549
                 energy =   -0.381140
                kinetic =    2.399701
    potential(screened) =   -2.780841
       potential(ionic) =   -6.206085

   izeta = 2
                 rmatch =    3.653288
              splitnorm =    0.150000
                 energy =   -0.249149
                kinetic =    3.542762
    potential(screened) =   -3.791911
       potential(ionic) =   -7.581078

POLgen: Perturbative polarization orbital with L=  2

POLgen: Polarization orbital for state 2p

   izeta = 1
                     rc =    5.658549
                 energy =    1.109913
                kinetic =    2.304789
    potential(screened) =   -1.194876
       potential(ionic) =   -4.013592
atom: Total number of Sankey-type orbitals: 13

atm_pop: Valence configuration (for local Pseudopot. screening):
 2s( 2.00)                                                            
 2p( 2.00)                                                            
Vna: chval, zval:    4.00000   4.00000

Vna:  Cut-off radius for the neutral-atom potential:   5.658549
comcore: Pseudo-core radius Rcore=  1.791422

atom: _________________________________________________________________________

<basis_specs>
===============================================================================
B                    Z=   5    Mass=  10.810        Charge= 0.17977+309
Lmxo=1 Lmxkb= 3    BasisType=split      Semic=F
L=0  Nsemic=0  Cnfigmx=2
          n=1  nzeta=2  polorb=0
            splnorm:   0.15000    
               vcte:    0.0000    
               rinn:    0.0000    
                rcs:    0.0000      0.0000    
            lambdas:    1.0000      1.0000    
L=1  Nsemic=0  Cnfigmx=2
          n=1  nzeta=2  polorb=1
            splnorm:   0.15000    
               vcte:    0.0000    
               rinn:    0.0000    
                rcs:    0.0000      0.0000    
            lambdas:    1.0000      1.0000    
-------------------------------------------------------------------------------
L=0  Nkbl=1  erefs: 0.17977+309
L=1  Nkbl=1  erefs: 0.17977+309
L=2  Nkbl=1  erefs: 0.17977+309
L=3  Nkbl=1  erefs: 0.17977+309
===============================================================================
</basis_specs>

atom: Called for B                     (Z =   5)

read_vps: Pseudopotential generation method:
read_vps: ATM3      Troullier-Martins                       
Total valence charge:    3.00000

read_vps: Pseudopotential includes a core correction:
read_vps: Pseudo-core for xc-correction

xc_check: Exchange-correlation functional:
xc_check: GGA Perdew, Burke & Ernzerhof 1996
V l=0 = -2*Zval/r beyond r=  1.7165
V l=1 = -2*Zval/r beyond r=  1.7165
V l=2 = -2*Zval/r beyond r=  1.7165
V l=3 = -2*Zval/r beyond r=  1.6951
All V_l potentials equal beyond r=  1.7165
This should be close to max(r_c) in ps generation
All pots = -2*Zval/r beyond r=  1.7165

VLOCAL1: 99.0% of the norm of Vloc inside     14.733 Ry
VLOCAL1: 99.9% of the norm of Vloc inside     33.577 Ry
atom: Maximum radius for 4*pi*r*r*local-pseudopot. charge    2.04484
atom: Maximum radius for r*vlocal+2*Zval:    1.75994
GHOST: No ghost state for L =  0
GHOST: No ghost state for L =  1
GHOST: No ghost state for L =  2
GHOST: No ghost state for L =  3

KBgen: Kleinman-Bylander projectors: 
   l= 0   rc=  1.897051   el= -0.693730   Ekb=  4.595746   kbcos=  0.286105
   l= 1   rc=  1.920920   el= -0.265236   Ekb= -2.350715   kbcos= -0.315747
   l= 2   rc=  2.044840   el=  0.002055   Ekb= -0.690767   kbcos= -0.013822
   l= 3   rc=  2.149707   el=  0.003188   Ekb= -0.315358   kbcos= -0.002055

KBgen: Total number of  Kleinman-Bylander projectors:   16
atom: -------------------------------------------------------------------------

atom: SANKEY-TYPE ORBITALS:
atom: Selected multiple-zeta basis: split     

SPLIT: Orbitals with angular momentum L= 0

SPLIT: Basis orbitals for state 2s

SPLIT: PAO cut-off radius determined from an
SPLIT: energy shift=  0.007350 Ry

   izeta = 1
                 lambda =    1.000000
                     rc =    5.422032
                 energy =   -0.686029
                kinetic =    0.576707
    potential(screened) =   -1.262736
       potential(ionic) =   -3.271094

   izeta = 2
                 rmatch =    4.222573
              splitnorm =    0.150000
                 energy =   -0.602132
                kinetic =    0.858975
    potential(screened) =   -1.461107
       potential(ionic) =   -3.582536

SPLIT: Orbitals with angular momentum L= 1

SPLIT: Basis orbitals for state 2p

SPLIT: PAO cut-off radius determined from an
SPLIT: energy shift=  0.007350 Ry

   izeta = 1
                 lambda =    1.000000
                     rc =    6.790259
                 energy =   -0.258578
                kinetic =    1.481412
    potential(screened) =   -1.739989
       potential(ionic) =   -3.657461

   izeta = 2
                 rmatch =    4.608740
              splitnorm =    0.150000
                 energy =   -0.173757
                kinetic =    2.186690
    potential(screened) =   -2.360447
       potential(ionic) =   -4.464260

POLgen: Perturbative polarization orbital with L=  2

POLgen: Polarization orbital for state 2p

   izeta = 1
                     rc =    6.790259
                 energy =    0.684082
                kinetic =    1.471481
    potential(screened) =   -0.787399
       potential(ionic) =   -2.406985
atom: Total number of Sankey-type orbitals: 13

atm_pop: Valence configuration (for local Pseudopot. screening):
 2s( 2.00)                                                            
 2p( 1.00)                                                            
Vna: chval, zval:    3.00000   3.00000

Vna:  Cut-off radius for the neutral-atom potential:   6.790259
comcore: Pseudo-core radius Rcore=  2.122997

atom: _________________________________________________________________________

prinput: Basis input ----------------------------------------------------------

PAO.BasisType split     

%block ChemicalSpeciesLabel
    1    6 C                       # Species index, atomic number, species label
    2    5 B                       # Species index, atomic number, species label
%endblock ChemicalSpeciesLabel

%block PAO.Basis                 # Define Basis set
C                     2                    # Species label, number of l-shells
 n=2   0   2                         # n, l, Nzeta 
   4.633      3.432   
   1.000      1.000   
 n=2   1   2 P   1                   # n, l, Nzeta, Polarization, NzetaPol
   5.659      3.653   
   1.000      1.000   
B                     2                    # Species label, number of l-shells
 n=2   0   2                         # n, l, Nzeta 
   5.422      4.223   
   1.000      1.000   
 n=2   1   2 P   1                   # n, l, Nzeta, Polarization, NzetaPol
   6.790      4.609   
   1.000      1.000   
%endblock PAO.Basis

prinput: ----------------------------------------------------------------------

coor:   Atomic-coordinates input format  =     Cartesian coordinates
coor:                                          (in Angstroms)

siesta: Atomic coordinates (Bohr) and species
siesta:      2.23554   1.32097   0.00000  1        1
siesta:      4.56367   2.66461   0.00000  1        2
siesta:     32.50328  21.48508   0.00000  1        3
siesta:     34.83141  22.82873   0.00000  1        4
siesta:     34.83116  17.45226   0.00000  1        5
siesta:     37.15930  18.79590   0.00000  1        6
siesta:     32.50291  13.41944   0.00000  1        7
siesta:     34.83104  14.76308   0.00000  1        8
siesta:     30.17465   9.38661   0.00000  1        9
siesta:     32.50278  10.73026   0.00000  1       10
siesta:     27.84639   5.35379   0.00000  1       11
siesta:     30.17453   6.69743   0.00000  1       12
siesta:     27.84714  21.48508   0.00000  1       13
siesta:     30.17527  22.82873   0.00000  1       14
siesta:      6.89168   1.32097   0.00000  1       15
siesta:      9.21981   2.66461   0.00000  1       16
siesta:     11.54782   1.32097   0.00000  1       17
siesta:     13.87595   2.66461   0.00000  1       18
siesta:     16.20396   1.32097   0.00000  1       19
siesta:     18.53210   2.66461   0.00000  1       20
siesta:     20.86199   1.32097   0.00000  1       21
siesta:     23.19013   2.66461   0.00000  1       22
siesta:     25.51813   1.32097   0.00000  1       23
siesta:     27.84627   2.66461   0.00000  1       24
siesta:      4.56380   5.35379   0.00000  1       25
siesta:      6.89193   6.69743   0.00000  1       26
siesta:      9.21994   5.35379   0.00000  1       27
siesta:     11.54807   6.69743   0.00000  1       28
siesta:     13.87608   5.35379   0.00000  1       29
siesta:     16.20421   6.69743   0.00000  1       30
siesta:     18.53411   5.35379   0.00000  1       31
siesta:      6.89205   9.38661   0.00000  1       32
siesta:      9.22019  10.73026   0.00000  1       33
siesta:     11.54820   9.38661   0.00000  1       34
siesta:     13.87633  10.73026   0.00000  1       35
siesta:     16.20434   9.38661   0.00000  1       36
siesta:     23.19050  10.73026   0.00000  1       37
siesta:      9.22031  13.41944   0.00000  1       38
siesta:     11.54845  14.76308   0.00000  1       39
siesta:     13.87645  13.41944   0.00000  1       40
siesta:     20.86262  14.76308   0.00000  1       41
siesta:     11.54857  17.45226   0.00000  1       42
siesta:     13.87670  18.79590   0.00000  1       43
siesta:     13.87683  21.48508   0.00000  1       44
siesta:     16.20496  22.82873   0.00000  1       45
siesta:     18.53486  21.48508   0.00000  1       46
siesta:     20.86299  22.82873   0.00000  1       47
siesta:     23.19063  13.41944   0.00000  1       48
siesta:     25.51876  14.76308   0.00000  1       49
siesta:     23.19100  21.48508   0.00000  1       50
siesta:     25.51913  22.82873   0.00000  1       51
siesta:     32.50316  18.79590   0.00000  1       52
siesta:     37.16131  21.48508   0.00000  1       53
siesta:     39.48945  22.82873   0.00000  1       54
siesta:     20.86224   6.69743   0.00000  2       55
siesta:     23.19025   5.35379   0.00000  2       56
siesta:     25.51838   6.69743   0.00000  2       57
siesta:     18.53247  10.73026   0.00000  2       58
siesta:     20.86237   9.38661   0.00000  2       59
siesta:     16.20459  14.76308   0.00000  2       60
siesta:     18.53448  13.41944   0.00000  2       61
siesta:     16.20471  17.45226   0.00000  2       62
siesta:     18.53284  18.79590   0.00000  2       63
siesta:     25.51851   9.38661   0.00000  2       64
siesta:     27.84664  10.73026   0.00000  2       65
siesta:     20.86274  17.45226   0.00000  2       66
siesta:     23.19088  18.79590   0.00000  2       67
siesta:     27.84677  13.41944   0.00000  2       68
siesta:     30.17490  14.76308   0.00000  2       69
siesta:     25.51888  17.45226   0.00000  2       70
siesta:     27.84702  18.79590   0.00000  2       71
siesta:     30.17503  17.45226   0.00000  2       72

siesta: System type = slab      

initatomlists: Number of atoms, orbitals, and projectors:     72   936  1152

siesta: ******************** Simulation parameters ****************************
siesta:
siesta: The following are some of the parameters of the simulation.
siesta: A complete list of the parameters used, including default values,
siesta: can be found in file out.fdf
siesta:
redata: Non-Collinear-spin run           =     F
redata: SpinPolarized (Up/Down) run      =     F
redata: Number of spin components        =     1
redata: Long output                      =     F
redata: Number of Atomic Species         =        2
redata: Charge density info will appear in .RHO file
redata: Write Mulliken Pop.              =     NO
redata: Mesh Cutoff                      =   200.0000  Ry
redata: Net charge of the system         =     0.0000 |e|
redata: Max. number of SCF Iter          =      500
redata: SCF convergence failure will abort job
redata: Performing Pulay mixing using    =    10 iterations
redata: Mix DM in first SCF step ?       =     F
redata: Write Pulay info on disk?        =     F
redata: Discard 1st Pulay DM after  kick =     F
redata: New DM Mixing Weight             =     0.0500
redata: New DM Occupancy tolerance       = 0.000000000001
redata: No kicks to SCF
redata: DM Mixing Weight for Kicks       =     0.5000
redata: DM Tolerance for SCF             =     0.000100
redata: Require Energy convergence for SCF =     F
redata: DM Energy tolerance for SCF      =     0.000100 eV
redata: Require Harris convergence for SCF =     F
redata: DM Harris energy tolerance for SCF =     0.000100 eV
redata: Using Saved Data (generic)   =     F
redata: Use continuation files for DM    =     T
redata: Neglect nonoverlap interactions  =     F
redata: Method of Calculation            =     Diagonalization
redata: Divide and Conquer               =     T
redata: Electronic Temperature           =     0.0019  Ry
redata: Fix the spin of the system       =     F
redata: Dynamics option                  =     Verlet MD run
redata: Initial MD time step             =        1
redata:   Final MD time step             =        1
redata: Length of MD time step           =     1.0000  fs
redata: Initial Temperature of MD run    =     0.0000  K
redata: Perform a MD quench              =     F
redata: ***********************************************************************
Total number of electrons:   270.000000
Total ionic charge:   270.000000

* ProcessorY, Blocksize:    2  24

k-point displ. along   1 input, could be:     0.00    0.50
k-point displ. along   2 input, could be:     0.00    0.50
 Kpoints in:          364 . Kpoints trimmed:          352

siesta: k-grid: Number of k-points =   352
siesta: k-grid: Cutoff (effective) =     5.000 Ang
siesta: k-grid: Supercell and displacements
siesta: k-grid:   26   0   0      0.000
siesta: k-grid:    0  26   0      0.000
siesta: k-grid:    0   0   1      0.000
Naive supercell factors:     2    2    2

superc: Internal auxiliary supercell:     2 x     2 x     2  =       8
superc: Number of atoms, orbitals, and projectors:    576   7488   9216

* Maximum dynamic memory allocated =     6 MB

siesta:                 ==============================
                            Begin MD step =      1
                        ==============================

superc: Internal auxiliary supercell:     2 x     2 x     2  =       8
superc: Number of atoms, orbitals, and projectors:    576   7488   9216

outcell: Unit cell vectors (Ang):
       14.785000    0.000000    0.000000
        7.393000   12.805052    0.000000
        0.000000    0.000000   10.000000

outcell: Cell vector modules (Ang)   :   14.785000   14.786000   10.000000
outcell: Cell angles (23,13,12) (deg):     90.0000     90.0000     60.0000
outcell: Cell volume (Ang**3)        :   1893.2269
New_DM. Step:     1
Initializing Density Matrix...

InitMesh: MESH =   120 x   120 x    90 =     1296000
InitMesh: Mesh cutoff (required, used) =   200.000   223.865 Ry

* Maximum dynamic memory allocated =   222 MB

stepf: Fermi-Dirac step function

siesta: Program's energy decomposition (eV):
siesta: Ebs     =     -4308.538194
siesta: Eions   =     16097.990269
siesta: Ena     =      3565.118187
siesta: Ekin    =      5428.893495
siesta: Enl     =       376.576065
siesta: DEna    =        -0.000007
siesta: DUscf   =         0.000000
siesta: DUext   =         0.000000
siesta: Exc     =     -3984.015760
siesta: eta*DQ  =         0.000000
siesta: Emadel  =         0.000000
siesta: Emeta   =         0.000000
siesta: Emolmec =         0.000000
siesta: Ekinion =         0.000000
siesta: Eharris =    -10628.435324
siesta: Etot    =    -10711.418289
siesta: FreeEng =    -10711.418289

siesta: iscf   Eharris(eV)      E_KS(eV)   FreeEng(eV)   dDmax  Ef(eV)
siesta:    1   -10628.4353   -10711.4183   -10711.4183  1.8675 -8.6184
timer: Routine,Calls,Time,% = IterSCF        1    6844.739  99.83
elaps: Routine,Calls,Wall,% = IterSCF        1     856.633  99.83
siesta:    2   -11654.9139   -10459.7053   -10459.7358  1.6406 -2.8066
siesta:    3   -10630.2846   -10615.2708   -10615.3175  0.9554 -4.7139
siesta:    4   -10608.3460   -10620.1658   -10620.2496  0.9491 -5.0983
siesta:    5   -10607.2276   -10618.9524   -10618.9982  0.9284 -5.0918
siesta:    6   -10594.1646   -10606.7132   -10606.7622  0.6558 -5.1560
siesta:    7   -10591.0240   -10595.9134   -10595.9294  0.2113 -5.8629
siesta:    8   -10590.0986   -10594.4452   -10594.5029  0.2396 -5.7785
siesta:    9   -10590.0843   -10594.2580   -10594.2855  0.2420 -5.7738
siesta:   10   -10587.4781   -10601.1386   -10601.1647  0.1816 -5.8541
siesta:   11   -10586.9478   -10598.4917   -10598.5027  0.1448 -5.8038
siesta:   12   -10586.7963   -10597.6987   -10597.7115  0.1345 -5.7887
siesta:   13   -10586.8981   -10598.0388   -10598.0533  0.1438 -5.7815
siesta:   14   -10586.8973   -10591.3674   -10591.3810  0.1021 -5.7728
siesta:   15   -10586.6880   -10588.6367   -10588.6588  0.0885 -5.7452
siesta:   16   -10586.7084   -10588.4214   -10588.4407  0.0817 -5.7656
siesta:   17   -10586.7006   -10588.8243   -10588.8407  0.0700 -5.7709
siesta:   18   -10586.6558   -10586.8568   -10586.8729  0.0351 -5.7504
siesta:   19   -10586.6373   -10585.5397   -10585.5563  0.0062 -5.7287
siesta:   20   -10586.6393   -10586.0292   -10586.0475  0.0041 -5.7329
siesta:   21   -10586.6398   -10585.9837   -10586.0012  0.0037 -5.7326
siesta:   22   -10586.6399   -10585.9887   -10586.0062  0.0036 -5.7325
siesta:   23   -10586.6374   -10585.9392   -10585.9567  0.0036 -5.7320
siesta:   24   -10586.6373   -10585.9251   -10585.9428  0.0035 -5.7321
siesta:   25   -10586.6367   -10586.0145   -10586.0322  0.0026 -5.7316
siesta:   26   -10586.6357   -10586.2699   -10586.2878  0.0019 -5.7287
siesta:   27   -10586.6351   -10586.3800   -10586.3982  0.0011 -5.7263
siesta:   28   -10586.6329   -10586.6057   -10586.6241  0.0008 -5.7221
siesta:   29   -10586.6328   -10586.6312   -10586.6505  0.0007 -5.7223
siesta:   30   -10586.6328   -10586.6433   -10586.6627  0.0005 -5.7230
siesta:   31   -10586.6328   -10586.6443   -10586.6636  0.0004 -5.7233
siesta:   32   -10586.6328   -10586.6466   -10586.6659  0.0004 -5.7232
siesta:   33   -10586.6327   -10586.6278   -10586.6471  0.0002 -5.7228
siesta:   34   -10586.6327   -10586.6315   -10586.6509  0.0001 -5.7228
siesta:   35   -10586.6327   -10586.6338   -10586.6532  0.0001 -5.7229

siesta: E_KS(eV) =           -10586.6346

siesta: E_KS - E_eggbox =    -10586.6346

siesta: Atomic forces (eV/Ang):
----------------------------------------
   Tot    0.225813   -0.131090    0.000000
----------------------------------------
   Max    8.369412
   Res    2.216336    sqrt( Sum f_i^2 / 3N )
----------------------------------------
   Max    8.369412    constrained

Stress-tensor-Voigt (kbar):     -184.09     -182.56       -0.48       -0.86        0.00        0.00
(Free)E + p*V (eV/cell)   -10442.0490
Target enthalpy (eV/cell)   -10586.6539

siesta: Stress tensor (static) (eV/Ang**3):
        -0.114899   -0.000538    0.000000
        -0.000538   -0.113942    0.000000
         0.000000    0.000000   -0.000299

siesta: Pressure (static):        122.37583499  kBar

siesta: Stress tensor (total) (eV/Ang**3):
        -0.114899   -0.000538    0.000000
        -0.000538   -0.113942    0.000000
         0.000000    0.000000   -0.000299

siesta: Pressure (total):        122.37583499  kBar

siesta: Temp_ion =       0.000 K

* Maximum dynamic memory allocated =   238 MB

siesta: Program's energy decomposition (eV):
siesta: Ebs     =     -3538.780212
siesta: Eions   =     16097.990269
siesta: Ena     =      3565.118187
siesta: Ekin    =      6928.368378
siesta: Enl     =      -576.150536
siesta: DEna    =      -349.753838
siesta: DUscf   =        37.506751
siesta: DUext   =         0.000000
siesta: Exc     =     -4093.733231
siesta: eta*DQ  =         0.000000
siesta: Emadel  =         0.000000
siesta: Emeta   =         0.000000
siesta: Emolmec =         0.000000
siesta: Ekinion =         0.000000
siesta: Eharris =    -10586.632736
siesta: Etot    =    -10586.634558
siesta: FreeEng =    -10586.653938

siesta: Final energy (eV):
siesta:  Band Struct. =   -3538.780212
siesta:       Kinetic =    6928.368378
siesta:       Hartree =   20355.419553
siesta:    Ext. field =       0.000000
siesta:   Exch.-corr. =   -4093.733231
siesta:  Ion-electron =  -47021.808435
siesta:       Ion-ion =   13245.119177
siesta:       Ekinion =       0.000000
siesta:         Total =  -10586.634558

siesta: Atomic forces (eV/Ang):
siesta:      1   -0.283832   -0.183775    0.000000
siesta:      2    0.069676    0.041385    0.000000
siesta:      3    0.884105   -0.498414    0.000000
siesta:      4   -0.160646    0.132828    0.000000
siesta:      5    0.011181    0.997013    0.000000
siesta:      6    0.024263   -0.223591    0.000000
siesta:      7    3.372451   -1.150934    0.000000
siesta:      8   -0.098560   -1.246945    0.000000
siesta:      9    2.336328   -1.356007    0.000000
siesta:     10    0.959458   -0.497544    0.000000
siesta:     11    2.678403   -2.356277    0.000000
siesta:     12    0.912992   -0.576321    0.000000
siesta:     13    0.705115    3.466714    0.000000
siesta:     14   -1.138106    0.552215    0.000000
siesta:     15   -0.003676    0.009692    0.000000
siesta:     16   -0.003270    0.096456    0.000000
siesta:     17    0.023813    0.009048    0.000000
siesta:     18   -0.080512    0.037092    0.000000
siesta:     19    0.281636   -0.183791    0.000000
siesta:     20   -0.985411    0.711359    0.000000
siesta:     21    0.836015   -0.539903    0.000000
siesta:     22   -0.006206   -3.473308    0.000000
siesta:     23   -0.857052   -0.543221    0.000000
siesta:     24    1.035204    0.714023    0.000000
siesta:     25    0.023991   -0.038026    0.000000
siesta:     26    0.079544   -0.045648    0.000000
siesta:     27    0.007900   -0.010684    0.000000
siesta:     28   -0.091571   -0.050110    0.000000
siesta:     29   -0.017969   -0.042734    0.000000
siesta:     30   -0.863222   -0.572707    0.000000
siesta:     31   -2.708937   -2.353406    0.000000
siesta:     32    0.036074   -0.014085    0.000000
siesta:     33   -0.009599   -0.084006    0.000000
siesta:     34   -0.033994   -0.019478    0.000000
siesta:     35   -0.939179   -0.485975    0.000000
siesta:     36   -2.323569   -1.364594    0.000000
siesta:     37    0.005885    3.005043    0.000000
siesta:     38   -0.004667    0.302302    0.000000
siesta:     39    0.112511   -1.239895    0.000000
siesta:     40   -3.357999   -1.159554    0.000000
siesta:     41    2.596358   -1.476079    0.000000
siesta:     42   -0.013036    0.998171    0.000000
siesta:     43   -3.020485    1.744829    0.000000
siesta:     44   -0.847714   -0.506057    0.000000
siesta:     45    1.166676    0.545976    0.000000
siesta:     46   -0.713630    3.475565    0.000000
siesta:     47   -0.056010    1.086198    0.000000
siesta:     48    0.005858   -0.013311    0.000000
siesta:     49   -2.594966   -1.473675    0.000000
siesta:     50    0.011205    2.670179    0.000000
siesta:     51    0.037347    1.088416    0.000000
siesta:     52    3.020018    1.746817    0.000000
siesta:     53   -0.036082   -0.001191    0.000000
siesta:     54    0.173386    0.140849    0.000000
siesta:     55   -6.209981   -2.530737    0.000000
siesta:     56    0.001815   -2.717632    0.000000
siesta:     57    6.197138   -2.532164    0.000000
siesta:     58   -7.198398   -4.187734    0.000000
siesta:     59    6.618409    4.353406    0.000000
siesta:     60   -5.272336   -4.110730    0.000000
siesta:     61    7.051291    3.626652    0.000000
siesta:     62   -2.339396    1.350230    0.000000
siesta:     63    0.929875    6.641644    0.000000
siesta:     64   -6.627107    4.322802    0.000000
siesta:     65    7.214952   -4.178171    0.000000
siesta:     66    0.408690   -7.907912    0.000000
siesta:     67   -0.010268    8.369412    0.000000
siesta:     68   -7.051242    3.597940    0.000000
siesta:     69    5.290820   -4.090868    0.000000
siesta:     70   -0.409019   -7.933322    0.000000
siesta:     71   -0.911064    6.661929    0.000000
siesta:     72    2.384140    1.343242    0.000000
siesta: ----------------------------------------
siesta:    Tot    0.225813   -0.131090    0.000000

siesta: Stress tensor (static) (eV/Ang**3):
siesta:    -0.114899   -0.000538    0.000000
siesta:    -0.000538   -0.113942    0.000000
siesta:     0.000000    0.000000   -0.000299

siesta: Cell volume =       1893.226895 Ang**3

siesta: Pressure (static):
siesta:                Solid            Molecule  Units
siesta:           0.00083188          0.00021104  Ry/Bohr**3
siesta:           0.07638016          0.01937661  eV/Ang**3
siesta:         122.37583499         31.04508707  kBar
(Free)E+ p_basis*V_orbitals  =      -10550.229159
(Free)Eharris+ p_basis*V_orbitals  =      -10550.228088

siesta: Electric dipole (a.u.)  =    0.000000    0.000000    0.000000
siesta: Electric dipole (Debye) =    0.000000    0.000000    0.000000

* Maximum dynamic memory allocated : Node    0 =   231 MB
* Maximum dynamic memory allocated : Node    1 =    84 MB
* Maximum dynamic memory allocated : Node    2 =    87 MB
* Maximum dynamic memory allocated : Node    3 =   218 MB
* Maximum dynamic memory allocated : Node    4 =   238 MB
* Maximum dynamic memory allocated : Node    5 =    86 MB
* Maximum dynamic memory allocated : Node    6 =    90 MB
* Maximum dynamic memory allocated : Node    7 =   220 MB

* Maximum memory occured during matrixMtoO                    

timer: CPU execution times:
timer:  Routine       Calls   Time/call    Tot.time        %
timer:  siesta            1  236307.781  236307.781   100.00
timer:  Setup             1       3.038       3.038     0.00
timer:  bands             1       0.011       0.011     0.00
timer:  writewave         1       0.017       0.017     0.00
timer:  KSV_init          1       0.000       0.000     0.00
timer:  IterMD            1  236296.610  236296.610   100.00
timer:  hsparse           1       0.393       0.393     0.00
timer:  overlap           1       7.778       7.778     0.00
timer:  IterSCF          35    6745.238  236083.323    99.91
timer:  kinefsm           2       4.059       8.118     0.00
timer:  nlefsm            2      20.617      41.233     0.02
timer:  DHSCF            36     115.471    4156.962     1.76
timer:  DHSCF1            1       1.004       1.004     0.00
timer:  DHSCF2            1      43.730      43.730     0.02
timer:  REORD           290       0.010       2.888     0.00
timer:  POISON           37       2.241      82.902     0.04
timer:  DHSCF3           36     113.072    4070.609     1.72
timer:  rhoofd           36      22.177     798.375     0.34
timer:  cellXC           36       3.505     126.182     0.05
timer:  vmat             36      56.710    2041.575     0.86
timer:  MolMec            2       0.000       0.000     0.00
timer:  diagon           35    6628.578  232000.226    98.18
timer:  c-eigval      12320       6.695   82481.660    34.90
timer:  c-buildHS     12320       0.125    1535.899     0.65
timer:  cdiag         24640       6.885  169637.165    71.79
timer:  cdiag1        24640       0.427   10514.954     4.45
timer:  cdiag2        24640       1.915   47197.527    19.97
timer:  cdiag3        24640       3.952   97383.731    41.21
timer:  cdiag4        24640       0.227    5592.467     2.37
timer:  c-eigvec      12320       7.276   89636.698    37.93
timer:  c-buildD      12320       4.852   59781.203    25.30
timer:  DHSCF4            1      39.740      39.740     0.02
timer:  dfscf             1      37.107      37.107     0.02
timer:  overfsm           1       0.471       0.471     0.00
timer:  optical           1       7.113       7.113     0.00
  

elaps: ELAPSED times:
elaps:  Routine       Calls   Time/call    Tot.time        %
elaps:  siesta            1   29573.018   29573.018   100.00
elaps:  Setup             1       0.380       0.380     0.00
elaps:  bands             1       0.001       0.001     0.00
elaps:  writewave         1       0.002       0.002     0.00
elaps:  KSV_init          1       0.000       0.000     0.00
elaps:  IterMD            1   29571.620   29571.620   100.00
elaps:  hsparse           1       0.049       0.049     0.00
elaps:  overlap           1       0.989       0.989     0.00
elaps:  IterSCF          35     844.141   29544.940    99.91
elaps:  kinefsm           2       0.543       1.087     0.00
elaps:  nlefsm            2       2.544       5.088     0.02
elaps:  DHSCF            36      14.552     523.873     1.77
elaps:  DHSCF1            1       0.127       0.127     0.00
elaps:  DHSCF2            1       5.472       5.472     0.02
elaps:  REORD           290       0.001       0.380     0.00
elaps:  POISON           37       0.280      10.370     0.04
elaps:  DHSCF3           36      14.146     509.243     1.72
elaps:  rhoofd           36       4.506     162.200     0.55
elaps:  cellXC           36       0.438      15.763     0.05
elaps:  vmat             36       7.094     255.396     0.86
elaps:  MolMec            2       0.000       0.000     0.00
elaps:  diagon           35     829.567   29034.831    98.18
elaps:  c-eigval      12320       0.838   10319.694    34.90
elaps:  c-buildHS     12320       0.017     208.499     0.71
elaps:  cdiag         24640       0.850   20938.973    70.80
elaps:  cdiag1        24640       0.053    1305.540     4.41
elaps:  cdiag2        24640       0.240    5905.223    19.97
elaps:  cdiag3        24640       0.495   12201.064    41.26
elaps:  cdiag4        24640       0.029     710.479     2.40
elaps:  c-eigvec      12320       0.890   10966.682    37.08
elaps:  c-buildD      12320       0.628    7734.319    26.15
elaps:  DHSCF4            1       8.773       8.773     0.03
elaps:  dfscf             1       8.275       8.275     0.03
elaps:  overfsm           1       0.059       0.059     0.00
elaps:  optical           1       0.000       0.000     0.00
  
>> End of run:   4-DEC-2015   8:05:41
