Siesta Version:                                        siesta-3.2-pl-3
Architecture  : x86_64-unknown-linux-gnu--unknown
Compiler flags: mpiifort -g -O2 -fPIC -xSSE4.1 -fp-model source -shared-intel 
PARALLEL version

* Running on    8 nodes in parallel
>> Start of run:   5-DEC-2015   1:03:37

                           ***********************       
                           *  WELCOME TO SIESTA  *       
                           ***********************       

reinit: Reading from standard input
************************** Dump of input data file ****************************
#(1) General system descriptors
SystemName            GRP_doping    # Descriptive name of the system
SystemLabel           GRP_doping    # Short name for naming files
%include STRUCT.fdf
%include KPT.fdf
%include BASIS.fdf
#%include TS.fdf # for transiesta calculation
#(4) DFT, Grid, SCF
XC.functional         GGA           # LDA or GGA (default = LDA)
XC.authors            PBE           # CA (Ceperley-Aldr) = PZ
                                    #    (Perdew-Zunger) - LDA - Default
                                    # PW92 (Perdew-Wang-92) - LDA
                                    # PBE (Perdew-Burke-Ernzerhof) - GGA
MeshCutoff            200.000000    Ry      # Default: 50.0 Ry ~ 0.444 Bohr
                                    #         100.0 Ry ~ 0.314 Bohr
MaxSCFIterations      500           # Default: 50
DM.MixingWeight       0.05          # Default: 0.25
DM.NumberPulay        10            # Default: 0
DM.PulayOnFile        F             # SystemLabel.P1, SystemLabel.P2
DM.Tolerance          1.d-4         # Default: 1.d-4
DM.UseSaveDM          .true.        # because of the bug
SCFMustConverge       .true.
NeglNonOverlapInt     F             # Default: F
#(5) Eigenvalue problem: order-N or diagonalization
SolutionMethod        Diagon        # or Transiesta
ElectronicTemperature 300.0 K       # Default: 300.0 K
#(6) Molecular dynamics and relaxations
#MD.TypeOfRun          CG            # Type of dynamics:
#MD.VariableCell       F
#MD.NumCGsteps         0           # 0 for single-point / 100 for gopt
#MD.MaxCGDispl         0.2 Bohr      # Default: 0.2 Bohr
#MD.MaxForceTol        0.02 eV/Ang   # Default: 0.04 eV/Ang
#MD.MaxStressTol       1.0 GPa       # Default: 1.0 GPa
# Geometry Constraints
#%block GeometryConstraints
#	position from 1 to 44
#%endblock GeometryConstraints
************************** End of input data file *****************************

reinit: -----------------------------------------------------------------------
reinit: System Name: GRP_doping
reinit: -----------------------------------------------------------------------
reinit: System Label: GRP_doping                                                  
reinit: -----------------------------------------------------------------------

initatom: Reading input for the pseudopotentials and atomic orbitals ----------
 Species number:            1  Label: N Atomic number:           7
 Species number:            2  Label: C Atomic number:           6
Ground state valence configuration:   2s02  2p03
Reading pseudopotential information in formatted form from N.psf

Valence configuration for pseudopotential generation:
2s( 2.00) rc: 1.48
2p( 3.00) rc: 1.48
3d( 0.00) rc: 1.48
4f( 0.00) rc: 1.48
Ground state valence configuration:   2s02  2p02
Reading pseudopotential information in formatted form from C.psf

Valence configuration for pseudopotential generation:
2s( 2.00) rc: 1.54
2p( 2.00) rc: 1.54
3d( 0.00) rc: 1.54
4f( 0.00) rc: 1.54
For N, standard SIESTA heuristics set lmxkb to 3
 (one more than the basis l, including polarization orbitals).
Use PS.lmax or PS.KBprojectors blocks to override.
For C, standard SIESTA heuristics set lmxkb to 3
 (one more than the basis l, including polarization orbitals).
Use PS.lmax or PS.KBprojectors blocks to override.

<basis_specs>
===============================================================================
N                    Z=   7    Mass=  14.010        Charge= 0.17977+309
Lmxo=1 Lmxkb= 3    BasisType=split      Semic=F
L=0  Nsemic=0  Cnfigmx=2
          n=1  nzeta=2  polorb=0
            splnorm:   0.15000    
               vcte:    0.0000    
               rinn:    0.0000    
                rcs:    0.0000      0.0000    
            lambdas:    1.0000      1.0000    
L=1  Nsemic=0  Cnfigmx=2
          n=1  nzeta=2  polorb=1
            splnorm:   0.15000    
               vcte:    0.0000    
               rinn:    0.0000    
                rcs:    0.0000      0.0000    
            lambdas:    1.0000      1.0000    
-------------------------------------------------------------------------------
L=0  Nkbl=1  erefs: 0.17977+309
L=1  Nkbl=1  erefs: 0.17977+309
L=2  Nkbl=1  erefs: 0.17977+309
L=3  Nkbl=1  erefs: 0.17977+309
===============================================================================
</basis_specs>

atom: Called for N                     (Z =   7)

read_vps: Pseudopotential generation method:
read_vps: ATM3      Troullier-Martins                       
Total valence charge:    5.00000

read_vps: Pseudopotential includes a core correction:
read_vps: Pseudo-core for xc-correction

xc_check: Exchange-correlation functional:
xc_check: GGA Perdew, Burke & Ernzerhof 1996
V l=0 = -2*Zval/r beyond r=  1.4606
V l=1 = -2*Zval/r beyond r=  1.4606
V l=2 = -2*Zval/r beyond r=  1.4606
V l=3 = -2*Zval/r beyond r=  1.4606
All V_l potentials equal beyond r=  1.4606
This should be close to max(r_c) in ps generation
All pots = -2*Zval/r beyond r=  1.4606

VLOCAL1: 99.0% of the norm of Vloc inside     20.347 Ry
VLOCAL1: 99.9% of the norm of Vloc inside     46.372 Ry
atom: Maximum radius for 4*pi*r*r*local-pseudopot. charge    1.76189
atom: Maximum radius for r*vlocal+2*Zval:    1.53550
GHOST: No ghost state for L =  0
GHOST: No ghost state for L =  1
GHOST: No ghost state for L =  2
GHOST: No ghost state for L =  3

KBgen: Kleinman-Bylander projectors: 
   l= 0   rc=  1.634559   el= -1.363963   Ekb=  5.296955   kbcos=  0.335621
   l= 1   rc=  1.614250   el= -0.521451   Ekb= -5.259161   kbcos= -0.433408
   l= 2   rc=  1.718383   el=  0.001991   Ekb= -1.271464   kbcos= -0.007566
   l= 3   rc=  1.761893   el=  0.003093   Ekb= -0.494769   kbcos= -0.001015

KBgen: Total number of  Kleinman-Bylander projectors:   16
atom: -------------------------------------------------------------------------

atom: SANKEY-TYPE ORBITALS:
atom: Selected multiple-zeta basis: split     

SPLIT: Orbitals with angular momentum L= 0

SPLIT: Basis orbitals for state 2s

SPLIT: PAO cut-off radius determined from an
SPLIT: energy shift=  0.007350 Ry

   izeta = 1
                 lambda =    1.000000
                     rc =    4.071465
                 energy =   -1.356470
                kinetic =    1.176977
    potential(screened) =   -2.533447
       potential(ionic) =   -8.057990

   izeta = 2
                 rmatch =    2.905100
              splitnorm =    0.150000
                 energy =   -1.158343
                kinetic =    1.813009
    potential(screened) =   -2.971352
       potential(ionic) =   -8.901931

SPLIT: Orbitals with angular momentum L= 1

SPLIT: Basis orbitals for state 2p

SPLIT: PAO cut-off radius determined from an
SPLIT: energy shift=  0.007350 Ry

   izeta = 1
                 lambda =    1.000000
                     rc =    4.972977
                 energy =   -0.513884
                kinetic =    3.441732
    potential(screened) =   -3.955616
       potential(ionic) =   -9.287901

   izeta = 2
                 rmatch =    3.054066
              splitnorm =    0.150000
                 energy =   -0.318226
                kinetic =    5.125348
    potential(screened) =   -5.443573
       potential(ionic) =  -11.380999

POLgen: Perturbative polarization orbital with L=  2

POLgen: Polarization orbital for state 2p

   izeta = 1
                     rc =    4.972977
                 energy =    1.607437
                kinetic =    3.268125
    potential(screened) =   -1.660688
       potential(ionic) =   -5.973652
atom: Total number of Sankey-type orbitals: 13

atm_pop: Valence configuration (for local Pseudopot. screening):
 2s( 2.00)                                                            
 2p( 3.00)                                                            
Vna: chval, zval:    5.00000   5.00000

Vna:  Cut-off radius for the neutral-atom potential:   4.972977
comcore: Pseudo-core radius Rcore=  1.554824

atom: _________________________________________________________________________

<basis_specs>
===============================================================================
C                    Z=   6    Mass=  12.010        Charge= 0.17977+309
Lmxo=1 Lmxkb= 3    BasisType=split      Semic=F
L=0  Nsemic=0  Cnfigmx=2
          n=1  nzeta=2  polorb=0
            splnorm:   0.15000    
               vcte:    0.0000    
               rinn:    0.0000    
                rcs:    0.0000      0.0000    
            lambdas:    1.0000      1.0000    
L=1  Nsemic=0  Cnfigmx=2
          n=1  nzeta=2  polorb=1
            splnorm:   0.15000    
               vcte:    0.0000    
               rinn:    0.0000    
                rcs:    0.0000      0.0000    
            lambdas:    1.0000      1.0000    
-------------------------------------------------------------------------------
L=0  Nkbl=1  erefs: 0.17977+309
L=1  Nkbl=1  erefs: 0.17977+309
L=2  Nkbl=1  erefs: 0.17977+309
L=3  Nkbl=1  erefs: 0.17977+309
===============================================================================
</basis_specs>

atom: Called for C                     (Z =   6)

read_vps: Pseudopotential generation method:
read_vps: ATM3      Troullier-Martins                       
Total valence charge:    4.00000

read_vps: Pseudopotential includes a core correction:
read_vps: Pseudo-core for xc-correction

xc_check: Exchange-correlation functional:
xc_check: GGA Perdew, Burke & Ernzerhof 1996
V l=0 = -2*Zval/r beyond r=  1.5227
V l=1 = -2*Zval/r beyond r=  1.5227
V l=2 = -2*Zval/r beyond r=  1.5227
V l=3 = -2*Zval/r beyond r=  1.5038
All V_l potentials equal beyond r=  1.5227
This should be close to max(r_c) in ps generation
All pots = -2*Zval/r beyond r=  1.5227

VLOCAL1: 99.0% of the norm of Vloc inside     18.722 Ry
VLOCAL1: 99.9% of the norm of Vloc inside     42.668 Ry
atom: Maximum radius for 4*pi*r*r*local-pseudopot. charge    1.83678
atom: Maximum radius for r*vlocal+2*Zval:    1.58088
GHOST: No ghost state for L =  0
GHOST: No ghost state for L =  1
GHOST: No ghost state for L =  2
GHOST: No ghost state for L =  3

KBgen: Kleinman-Bylander projectors: 
   l= 0   rc=  1.704034   el= -1.009801   Ekb=  5.335044   kbcos=  0.316824
   l= 1   rc=  1.704034   el= -0.388707   Ekb= -3.785862   kbcos= -0.366464
   l= 2   rc=  1.791422   el=  0.001971   Ekb= -0.970471   kbcos= -0.009212
   l= 3   rc=  1.859892   el=  0.003065   Ekb= -0.399525   kbcos= -0.001223

KBgen: Total number of  Kleinman-Bylander projectors:   16
atom: -------------------------------------------------------------------------

atom: SANKEY-TYPE ORBITALS:
atom: Selected multiple-zeta basis: split     

SPLIT: Orbitals with angular momentum L= 0

SPLIT: Basis orbitals for state 2s

SPLIT: PAO cut-off radius determined from an
SPLIT: energy shift=  0.007350 Ry

   izeta = 1
                 lambda =    1.000000
                     rc =    4.632753
                 energy =   -1.002270
                kinetic =    0.855760
    potential(screened) =   -1.858031
       potential(ionic) =   -5.417575

   izeta = 2
                 rmatch =    3.431921
              splitnorm =    0.150000
                 energy =   -0.867111
                kinetic =    1.300804
    potential(screened) =   -2.167915
       potential(ionic) =   -5.962684

SPLIT: Orbitals with angular momentum L= 1

SPLIT: Basis orbitals for state 2p

SPLIT: PAO cut-off radius determined from an
SPLIT: energy shift=  0.007350 Ry

   izeta = 1
                 lambda =    1.000000
                     rc =    5.658549
                 energy =   -0.381140
                kinetic =    2.399701
    potential(screened) =   -2.780841
       potential(ionic) =   -6.206085

   izeta = 2
                 rmatch =    3.653288
              splitnorm =    0.150000
                 energy =   -0.249149
                kinetic =    3.542762
    potential(screened) =   -3.791911
       potential(ionic) =   -7.581078

POLgen: Perturbative polarization orbital with L=  2

POLgen: Polarization orbital for state 2p

   izeta = 1
                     rc =    5.658549
                 energy =    1.109913
                kinetic =    2.304789
    potential(screened) =   -1.194876
       potential(ionic) =   -4.013592
atom: Total number of Sankey-type orbitals: 13

atm_pop: Valence configuration (for local Pseudopot. screening):
 2s( 2.00)                                                            
 2p( 2.00)                                                            
Vna: chval, zval:    4.00000   4.00000

Vna:  Cut-off radius for the neutral-atom potential:   5.658549
comcore: Pseudo-core radius Rcore=  1.791422

atom: _________________________________________________________________________

prinput: Basis input ----------------------------------------------------------

PAO.BasisType split     

%block ChemicalSpeciesLabel
    1    7 N                       # Species index, atomic number, species label
    2    6 C                       # Species index, atomic number, species label
%endblock ChemicalSpeciesLabel

%block PAO.Basis                 # Define Basis set
N                     2                    # Species label, number of l-shells
 n=2   0   2                         # n, l, Nzeta 
   4.071      2.905   
   1.000      1.000   
 n=2   1   2 P   1                   # n, l, Nzeta, Polarization, NzetaPol
   4.973      3.054   
   1.000      1.000   
C                     2                    # Species label, number of l-shells
 n=2   0   2                         # n, l, Nzeta 
   4.633      3.432   
   1.000      1.000   
 n=2   1   2 P   1                   # n, l, Nzeta, Polarization, NzetaPol
   5.659      3.653   
   1.000      1.000   
%endblock PAO.Basis

prinput: ----------------------------------------------------------------------

coor:   Atomic-coordinates input format  =     Cartesian coordinates
coor:                                          (in Angstroms)

siesta: Atomic coordinates (Bohr) and species
siesta:      2.23554   1.32097   0.00000  1        1
siesta:      4.56367   2.66461   0.00000  1        2
siesta:     32.50328  21.48508   0.00000  1        3
siesta:     11.54782   1.32097   0.00000  1        4
siesta:     13.87595   2.66461   0.00000  1        5
siesta:     20.86199   1.32097   0.00000  1        6
siesta:     23.19013   2.66461   0.00000  1        7
siesta:      4.56380   5.35379   0.00000  1        8
siesta:     13.87608   5.35379   0.00000  1        9
siesta:     23.19025   5.35379   0.00000  1       10
siesta:      6.89205   9.38661   0.00000  1       11
siesta:      9.22019  10.73026   0.00000  1       12
siesta:     16.20434   9.38661   0.00000  1       13
siesta:     18.53247  10.73026   0.00000  1       14
siesta:      9.22031  13.41944   0.00000  1       15
siesta:     18.53448  13.41944   0.00000  1       16
siesta:     11.54857  17.45226   0.00000  1       17
siesta:     13.87670  18.79590   0.00000  1       18
siesta:     13.87683  21.48508   0.00000  1       19
siesta:     25.51851   9.38661   0.00000  1       20
siesta:     27.84664  10.73026   0.00000  1       21
siesta:     20.86274  17.45226   0.00000  1       22
siesta:     23.19088  18.79590   0.00000  1       23
siesta:     27.84677  13.41944   0.00000  1       24
siesta:     23.19100  21.48508   0.00000  1       25
siesta:     30.17503  17.45226   0.00000  1       26
siesta:     32.50316  18.79590   0.00000  1       27
siesta:     34.83141  22.82873   0.00000  2       28
siesta:     34.83116  17.45226   0.00000  2       29
siesta:     37.15930  18.79590   0.00000  2       30
siesta:     32.50291  13.41944   0.00000  2       31
siesta:     34.83104  14.76308   0.00000  2       32
siesta:     30.17465   9.38661   0.00000  2       33
siesta:     32.50278  10.73026   0.00000  2       34
siesta:     27.84639   5.35379   0.00000  2       35
siesta:     30.17453   6.69743   0.00000  2       36
siesta:     27.84714  21.48508   0.00000  2       37
siesta:     30.17527  22.82873   0.00000  2       38
siesta:      6.89168   1.32097   0.00000  2       39
siesta:      9.21981   2.66461   0.00000  2       40
siesta:     16.20396   1.32097   0.00000  2       41
siesta:     18.53210   2.66461   0.00000  2       42
siesta:     25.51813   1.32097   0.00000  2       43
siesta:     27.84627   2.66461   0.00000  2       44
siesta:      6.89193   6.69743   0.00000  2       45
siesta:      9.21994   5.35379   0.00000  2       46
siesta:     11.54807   6.69743   0.00000  2       47
siesta:     16.20421   6.69743   0.00000  2       48
siesta:     18.53411   5.35379   0.00000  2       49
siesta:     20.86224   6.69743   0.00000  2       50
siesta:     25.51838   6.69743   0.00000  2       51
siesta:     11.54820   9.38661   0.00000  2       52
siesta:     13.87633  10.73026   0.00000  2       53
siesta:     20.86237   9.38661   0.00000  2       54
siesta:     23.19050  10.73026   0.00000  2       55
siesta:     11.54845  14.76308   0.00000  2       56
siesta:     13.87645  13.41944   0.00000  2       57
siesta:     16.20459  14.76308   0.00000  2       58
siesta:     20.86262  14.76308   0.00000  2       59
siesta:     16.20471  17.45226   0.00000  2       60
siesta:     18.53284  18.79590   0.00000  2       61
siesta:     16.20496  22.82873   0.00000  2       62
siesta:     18.53486  21.48508   0.00000  2       63
siesta:     20.86299  22.82873   0.00000  2       64
siesta:     23.19063  13.41944   0.00000  2       65
siesta:     25.51876  14.76308   0.00000  2       66
siesta:     30.17490  14.76308   0.00000  2       67
siesta:     25.51888  17.45226   0.00000  2       68
siesta:     27.84702  18.79590   0.00000  2       69
siesta:     25.51913  22.82873   0.00000  2       70
siesta:     37.16131  21.48508   0.00000  2       71
siesta:     39.48945  22.82873   0.00000  2       72

siesta: System type = slab      

initatomlists: Number of atoms, orbitals, and projectors:     72   936  1152

siesta: ******************** Simulation parameters ****************************
siesta:
siesta: The following are some of the parameters of the simulation.
siesta: A complete list of the parameters used, including default values,
siesta: can be found in file out.fdf
siesta:
redata: Non-Collinear-spin run           =     F
redata: SpinPolarized (Up/Down) run      =     F
redata: Number of spin components        =     1
redata: Long output                      =     F
redata: Number of Atomic Species         =        2
redata: Charge density info will appear in .RHO file
redata: Write Mulliken Pop.              =     NO
redata: Mesh Cutoff                      =   200.0000  Ry
redata: Net charge of the system         =     0.0000 |e|
redata: Max. number of SCF Iter          =      500
redata: SCF convergence failure will abort job
redata: Performing Pulay mixing using    =    10 iterations
redata: Mix DM in first SCF step ?       =     F
redata: Write Pulay info on disk?        =     F
redata: Discard 1st Pulay DM after  kick =     F
redata: New DM Mixing Weight             =     0.0500
redata: New DM Occupancy tolerance       = 0.000000000001
redata: No kicks to SCF
redata: DM Mixing Weight for Kicks       =     0.5000
redata: DM Tolerance for SCF             =     0.000100
redata: Require Energy convergence for SCF =     F
redata: DM Energy tolerance for SCF      =     0.000100 eV
redata: Require Harris convergence for SCF =     F
redata: DM Harris energy tolerance for SCF =     0.000100 eV
redata: Using Saved Data (generic)   =     F
redata: Use continuation files for DM    =     T
redata: Neglect nonoverlap interactions  =     F
redata: Method of Calculation            =     Diagonalization
redata: Divide and Conquer               =     T
redata: Electronic Temperature           =     0.0019  Ry
redata: Fix the spin of the system       =     F
redata: Dynamics option                  =     Verlet MD run
redata: Initial MD time step             =        1
redata:   Final MD time step             =        1
redata: Length of MD time step           =     1.0000  fs
redata: Initial Temperature of MD run    =     0.0000  K
redata: Perform a MD quench              =     F
redata: ***********************************************************************
Total number of electrons:   315.000000
Total ionic charge:   315.000000

* ProcessorY, Blocksize:    2  24

k-point displ. along   1 input, could be:     0.00    0.50
k-point displ. along   2 input, could be:     0.00    0.50
 Kpoints in:          364 . Kpoints trimmed:          352

siesta: k-grid: Number of k-points =   352
siesta: k-grid: Cutoff (effective) =     5.000 Ang
siesta: k-grid: Supercell and displacements
siesta: k-grid:   26   0   0      0.000
siesta: k-grid:    0  26   0      0.000
siesta: k-grid:    0   0   1      0.000
Naive supercell factors:     2    2    2

superc: Internal auxiliary supercell:     2 x     2 x     2  =       8
superc: Number of atoms, orbitals, and projectors:    576   7488   9216

* Maximum dynamic memory allocated =     6 MB

siesta:                 ==============================
                            Begin MD step =      1
                        ==============================

superc: Internal auxiliary supercell:     2 x     2 x     2  =       8
superc: Number of atoms, orbitals, and projectors:    576   7488   9216

outcell: Unit cell vectors (Ang):
       14.785000    0.000000    0.000000
        7.393000   12.805052    0.000000
        0.000000    0.000000   10.000000

outcell: Cell vector modules (Ang)   :   14.785000   14.786000   10.000000
outcell: Cell angles (23,13,12) (deg):     90.0000     90.0000     60.0000
outcell: Cell volume (Ang**3)        :   1893.2269
New_DM. Step:     1
Initializing Density Matrix...

iodm: Reading Density Matrix from files
 Read DM has different structure. Fixing...

InitMesh: MESH =   120 x   120 x    90 =     1296000
InitMesh: Mesh cutoff (required, used) =   200.000   223.865 Ry

* Maximum dynamic memory allocated =   175 MB

stepf: Fermi-Dirac step function

siesta: Program's energy decomposition (eV):
siesta: Ebs     =     -4718.181648
siesta: Eions   =     22743.175864
siesta: Ena     =      4241.490064
siesta: Ekin    =      9294.192426
siesta: Enl     =      -946.984456
siesta: DEna    =      -318.679433
siesta: DUscf   =       294.342207
siesta: DUext   =         0.000000
siesta: Exc     =     -4727.259226
siesta: eta*DQ  =         0.000000
siesta: Emadel  =         0.000000
siesta: Emeta   =         0.000000
siesta: Emolmec =         0.000000
siesta: Ekinion =         0.000000
siesta: Eharris =    -15532.755813
siesta: Etot    =    -14906.074282
siesta: FreeEng =    -14906.074282

siesta: iscf   Eharris(eV)      E_KS(eV)   FreeEng(eV)   dDmax  Ef(eV)
siesta:    1   -15532.7558   -14906.0743   -14906.0743  0.9119 -1.6988
timer: Routine,Calls,Time,% = IterSCF        1    6332.715  99.80
elaps: Routine,Calls,Wall,% = IterSCF        1     792.536  99.80
siesta:    2   -20417.2626   -12644.3839   -12644.4078  1.7693 -6.6596
siesta:    3   -14981.8994   -14705.6431   -14705.6725  0.8102 -0.7012
siesta:    4   -14989.1072   -14688.9498   -14688.9712  0.7766 -0.7838
siesta:    5   -14846.6144   -14591.9448   -14591.9663  0.4942 -2.5872
siesta:    6   -14830.7943   -14582.2015   -14582.2273  0.4185 -2.9191
siesta:    7   -14829.0153   -14592.0653   -14592.0976  0.4048 -2.9277
siesta:    8   -14824.9104   -14732.8951   -14732.9277  0.1897 -2.8322
siesta:    9   -14823.3245   -14740.1181   -14740.1451  0.1652 -2.8497
siesta:   10   -14822.2155   -14800.0712   -14800.1000  0.0751 -2.7741
siesta:   11   -14822.2034   -14806.5026   -14806.5348  0.0619 -2.7681
siesta:   12   -14822.0980   -14816.3174   -14816.3494  0.0243 -2.7847
siesta:   13   -14822.0918   -14818.1578   -14818.1892  0.0115 -2.7922
siesta:   14   -14822.0884   -14819.7413   -14819.7727  0.0096 -2.7907
siesta:   15   -14822.0797   -14822.2021   -14822.2336  0.0033 -2.7933
siesta:   16   -14822.0782   -14822.2549   -14822.2868  0.0021 -2.7950
siesta:   17   -14822.0778   -14822.2447   -14822.2765  0.0016 -2.7954
siesta:   18   -14822.0777   -14822.2627   -14822.2945  0.0010 -2.7957
siesta:   19   -14822.0776   -14822.1429   -14822.1747  0.0006 -2.7954
siesta:   20   -14822.0775   -14822.1538   -14822.1856  0.0005 -2.7951
siesta:   21   -14822.0775   -14822.1731   -14822.2049  0.0003 -2.7947
siesta:   22   -14822.0775   -14822.1550   -14822.1867  0.0002 -2.7947
siesta:   23   -14822.0775   -14822.0712   -14822.1030  0.0002 -2.7948
siesta:   24   -14822.0775   -14822.0649   -14822.0967  0.0001 -2.7948
siesta:   25   -14822.0775   -14822.0784   -14822.1102  0.0001 -2.7948

siesta: E_KS(eV) =           -14822.0863

siesta: E_KS - E_eggbox =    -14822.0863

siesta: Atomic forces (eV/Ang):
----------------------------------------
   Tot    0.245232   -0.013434    0.000000
----------------------------------------
   Max    1.188928
   Res    0.453216    sqrt( Sum f_i^2 / 3N )
----------------------------------------
   Max    1.188928    constrained

Stress-tensor-Voigt (kbar):       51.89       55.37        0.34        2.54        0.00        0.00
(Free)E + p*V (eV/cell)   -14864.4993
Target enthalpy (eV/cell)   -14822.1181

siesta: Stress tensor (static) (eV/Ang**3):
         0.032384    0.001583    0.000000
         0.001583    0.034559    0.000000
         0.000000    0.000000    0.000214

siesta: Pressure (static):        -35.86623835  kBar

siesta: Stress tensor (total) (eV/Ang**3):
         0.032384    0.001583    0.000000
         0.001583    0.034559    0.000000
         0.000000    0.000000    0.000214

siesta: Pressure (total):        -35.86623835  kBar

siesta: Temp_ion =       0.000 K

* Maximum dynamic memory allocated =   190 MB

siesta: Program's energy decomposition (eV):
siesta: Ebs     =     -4668.250419
siesta: Eions   =     22743.175864
siesta: Ena     =      4241.490064
siesta: Ekin    =     10097.717064
siesta: Enl     =     -1592.304868
siesta: DEna    =      -175.708056
siesta: DUscf   =        24.536001
siesta: DUext   =         0.000000
siesta: Exc     =     -4674.640644
siesta: eta*DQ  =         0.000000
siesta: Emadel  =         0.000000
siesta: Emeta   =         0.000000
siesta: Emolmec =         0.000000
siesta: Ekinion =         0.000000
siesta: Eharris =    -14822.077521
siesta: Etot    =    -14822.086302
siesta: FreeEng =    -14822.118077

siesta: Final energy (eV):
siesta:  Band Struct. =   -4668.250419
siesta:       Kinetic =   10097.717064
siesta:       Hartree =   28297.903841
siesta:    Ext. field =       0.000000
siesta:   Exch.-corr. =   -4674.640644
siesta:  Ion-electron =  -66080.497864
siesta:       Ion-ion =   17537.431299
siesta:       Ekinion =       0.000000
siesta:         Total =  -14822.086302

siesta: Atomic forces (eV/Ang):
siesta:      1   -1.177014   -0.021286    0.000000
siesta:      2    0.469134   -0.247462    0.000000
siesta:      3   -0.584551    1.001347    0.000000
siesta:      4   -1.154677   -0.025298    0.000000
siesta:      5    0.471401   -0.244217    0.000000
siesta:      6   -1.188928   -0.022630    0.000000
siesta:      7    0.467724   -0.247690    0.000000
siesta:      8   -0.601093    0.998613    0.000000
siesta:      9   -0.585228    0.997015    0.000000
siesta:     10   -0.592070    0.994594    0.000000
siesta:     11   -1.168905   -0.006108    0.000000
siesta:     12    0.471037   -0.241836    0.000000
siesta:     13   -1.155897   -0.006859    0.000000
siesta:     14    0.507848   -0.251841    0.000000
siesta:     15   -0.600792    1.001931    0.000000
siesta:     16   -0.625426    1.005683    0.000000
siesta:     17   -1.169940   -0.008791    0.000000
siesta:     18    0.470214   -0.240119    0.000000
siesta:     19   -0.572452    0.997271    0.000000
siesta:     20   -1.159836   -0.007884    0.000000
siesta:     21    0.471997   -0.241604    0.000000
siesta:     22   -1.181817   -0.006969    0.000000
siesta:     23    0.467517   -0.240442    0.000000
siesta:     24   -0.590431    0.997781    0.000000
siesta:     25   -0.589956    0.998390    0.000000
siesta:     26   -1.158130   -0.007600    0.000000
siesta:     27    0.470896   -0.240921    0.000000
siesta:     28    0.829161   -0.443480    0.000000
siesta:     29    0.744115   -0.435123    0.000000
siesta:     30   -0.036435    0.388589    0.000000
siesta:     31    0.179143   -0.110337    0.000000
siesta:     32   -0.342589   -0.141116    0.000000
siesta:     33    0.744423   -0.438999    0.000000
siesta:     34   -0.046891    0.385068    0.000000
siesta:     35    0.178525   -0.108674    0.000000
siesta:     36   -0.343928   -0.140568    0.000000
siesta:     37    0.178528   -0.104581    0.000000
siesta:     38   -0.357361   -0.118807    0.000000
siesta:     39    0.745349   -0.454105    0.000000
siesta:     40   -0.057487    0.383438    0.000000
siesta:     41    0.749570   -0.454277    0.000000
siesta:     42   -0.025950    0.382926    0.000000
siesta:     43    0.746601   -0.453271    0.000000
siesta:     44   -0.046303    0.382722    0.000000
siesta:     45    0.792618   -0.450712    0.000000
siesta:     46    0.178448   -0.108554    0.000000
siesta:     47   -0.354486   -0.138110    0.000000
siesta:     48    0.824416   -0.459397    0.000000
siesta:     49    0.142663   -0.098726    0.000000
siesta:     50   -0.358315   -0.141226    0.000000
siesta:     51    0.796540   -0.452852    0.000000
siesta:     52    0.740669   -0.437064    0.000000
siesta:     53   -0.055452    0.388475    0.000000
siesta:     54    0.717762   -0.432340    0.000000
siesta:     55   -0.059695    0.388997    0.000000
siesta:     56    0.794190   -0.451089    0.000000
siesta:     57    0.180725   -0.111078    0.000000
siesta:     58   -0.328890   -0.140306    0.000000
siesta:     59    0.789855   -0.451854    0.000000
siesta:     60    0.746485   -0.436654    0.000000
siesta:     61   -0.026127    0.384463    0.000000
siesta:     62    0.831859   -0.445156    0.000000
siesta:     63    0.142129   -0.098104    0.000000
siesta:     64   -0.361323   -0.123105    0.000000
siesta:     65    0.178801   -0.109252    0.000000
siesta:     66   -0.354085   -0.138113    0.000000
siesta:     67    0.795945   -0.451702    0.000000
siesta:     68    0.741623   -0.436915    0.000000
siesta:     69   -0.056252    0.388195    0.000000
siesta:     70    0.790549   -0.436130    0.000000
siesta:     71    0.140268   -0.097703    0.000000
siesta:     72   -0.374784   -0.119902    0.000000
siesta: ----------------------------------------
siesta:    Tot    0.245232   -0.013434    0.000000

siesta: Stress tensor (static) (eV/Ang**3):
siesta:     0.032384    0.001583    0.000000
siesta:     0.001583    0.034559    0.000000
siesta:     0.000000    0.000000    0.000214

siesta: Cell volume =       1893.226895 Ang**3

siesta: Pressure (static):
siesta:                Solid            Molecule  Units
siesta:          -0.00024381         -0.00029186  Ry/Bohr**3
siesta:          -0.02238570         -0.02679732  eV/Ang**3
siesta:         -35.86623835        -42.93450094  kBar
(Free)E+ p_basis*V_orbitals  =      -14795.240477
(Free)Eharris+ p_basis*V_orbitals  =      -14795.239583

siesta: Electric dipole (a.u.)  =    0.000000    0.000000    0.000000
siesta: Electric dipole (Debye) =    0.000000    0.000000    0.000000

* Maximum dynamic memory allocated : Node    0 =   190 MB
* Maximum dynamic memory allocated : Node    1 =    71 MB
* Maximum dynamic memory allocated : Node    2 =    73 MB
* Maximum dynamic memory allocated : Node    3 =   180 MB
* Maximum dynamic memory allocated : Node    4 =   189 MB
* Maximum dynamic memory allocated : Node    5 =    71 MB
* Maximum dynamic memory allocated : Node    6 =    73 MB
* Maximum dynamic memory allocated : Node    7 =   175 MB

* Maximum memory occured during matrixMtoO                    

timer: CPU execution times:
timer:  Routine       Calls   Time/call    Tot.time        %
timer:  siesta            1  156447.094  156447.094   100.00
timer:  Setup             1       3.773       3.773     0.00
timer:  bands             1       0.016       0.016     0.00
timer:  writewave         1       0.040       0.040     0.00
timer:  KSV_init          1       0.006       0.006     0.00
timer:  IterMD            1  156435.447  156435.447    99.99
timer:  hsparse           1       0.253       0.253     0.00
timer:  overlap           1       7.685       7.685     0.00
timer:  IterSCF          25    6251.433  156285.823    99.90
timer:  kinefsm           2       3.993       7.985     0.01
timer:  nlefsm            2      17.690      35.381     0.02
timer:  DHSCF            26      74.954    1948.814     1.25
timer:  DHSCF1            1       0.760       0.760     0.00
timer:  DHSCF2            1      31.279      31.279     0.02
timer:  REORD           210       0.010       2.033     0.00
timer:  POISON           27       2.245      60.606     0.04
timer:  DHSCF3           26      72.627    1888.292     1.21
timer:  rhoofd           26      13.695     356.080     0.23
timer:  cellXC           26       3.479      90.454     0.06
timer:  vmat             26      36.131     939.401     0.60
timer:  MolMec            2       0.000       0.001     0.00
timer:  diagon           25    6174.907  154372.681    98.67
timer:  c-eigval       8800       6.704   58992.701    37.71
timer:  c-buildHS      8800       0.112     983.017     0.63
timer:  cdiag         17600       6.894  121327.094    77.55
timer:  cdiag1        17600       0.428    7524.078     4.81
timer:  cdiag2        17600       1.913   33674.747    21.52
timer:  cdiag3        17600       3.976   69973.261    44.73
timer:  cdiag4        17600       0.207    3637.793     2.33
timer:  c-eigvec       8800       7.263   63918.653    40.86
timer:  c-buildD       8800       3.567   31388.460    20.06
timer:  DHSCF4            1      27.072      27.072     0.02
timer:  dfscf             1      25.307      25.307     0.02
timer:  overfsm           1       0.359       0.359     0.00
timer:  optical           1       6.928       6.928     0.00
  

elaps: ELAPSED times:
elaps:  Routine       Calls   Time/call    Tot.time        %
elaps:  siesta            1   19576.794   19576.794   100.00
elaps:  Setup             1       0.486       0.486     0.00
elaps:  bands             1       0.002       0.002     0.00
elaps:  writewave         1       0.006       0.006     0.00
elaps:  KSV_init          1       0.001       0.001     0.00
elaps:  IterMD            1   19575.315   19575.315    99.99
elaps:  hsparse           1       0.031       0.031     0.00
elaps:  overlap           1       0.964       0.964     0.00
elaps:  IterSCF          25     782.268   19556.706    99.90
elaps:  kinefsm           2       0.525       1.049     0.01
elaps:  nlefsm            2       2.255       4.511     0.02
elaps:  DHSCF            26       9.485     246.622     1.26
elaps:  DHSCF1            1       0.098       0.098     0.00
elaps:  DHSCF2            1       3.910       3.910     0.02
elaps:  REORD           210       0.001       0.277     0.00
elaps:  POISON           27       0.281       7.583     0.04
elaps:  DHSCF3           26       9.086     236.224     1.21
elaps:  rhoofd           26       3.018      78.475     0.40
elaps:  cellXC           26       0.435      11.302     0.06
elaps:  vmat             26       4.519     117.505     0.60
elaps:  MolMec            2       0.000       0.000     0.00
elaps:  diagon           25     772.703   19317.583    98.68
elaps:  c-eigval       8800       0.839    7380.947    37.70
elaps:  c-buildHS      8800       0.015     133.516     0.68
elaps:  cdiag         17600       0.850   14965.795    76.45
elaps:  cdiag1        17600       0.053     932.524     4.76
elaps:  cdiag2        17600       0.239    4213.563    21.52
elaps:  cdiag3        17600       0.498    8766.467    44.78
elaps:  cdiag4        17600       0.026     459.818     2.35
elaps:  c-eigvec       8800       0.888    7816.576    39.93
elaps:  c-buildD       8800       0.467    4109.852    20.99
elaps:  DHSCF4            1       6.198       6.198     0.03
elaps:  dfscf             1       5.839       5.839     0.03
elaps:  overfsm           1       0.046       0.046     0.00
elaps:  optical           1       0.001       0.001     0.00
  
>> End of run:   5-DEC-2015   6:29:54
