Siesta Version:                                        siesta-3.2-pl-3
Architecture  : x86_64-unknown-linux-gnu--unknown
Compiler flags: mpiifort -g -O2 -fPIC -xSSE4.1 -fp-model source -shared-intel 
PARALLEL version

* Running on    8 nodes in parallel
>> Start of run:   4-DEC-2015  18:46:38

                           ***********************       
                           *  WELCOME TO SIESTA  *       
                           ***********************       

reinit: Reading from standard input
************************** Dump of input data file ****************************
#(1) General system descriptors
SystemName            GRP_doping    # Descriptive name of the system
SystemLabel           GRP_doping    # Short name for naming files
%include STRUCT.fdf
%include KPT.fdf
%include BASIS.fdf
#%include TS.fdf # for transiesta calculation
#(4) DFT, Grid, SCF
XC.functional         GGA           # LDA or GGA (default = LDA)
XC.authors            PBE           # CA (Ceperley-Aldr) = PZ
                                    #    (Perdew-Zunger) - LDA - Default
                                    # PW92 (Perdew-Wang-92) - LDA
                                    # PBE (Perdew-Burke-Ernzerhof) - GGA
MeshCutoff            200.000000    Ry      # Default: 50.0 Ry ~ 0.444 Bohr
                                    #         100.0 Ry ~ 0.314 Bohr
MaxSCFIterations      500           # Default: 50
DM.MixingWeight       0.05          # Default: 0.25
DM.NumberPulay        10            # Default: 0
DM.PulayOnFile        F             # SystemLabel.P1, SystemLabel.P2
DM.Tolerance          1.d-4         # Default: 1.d-4
DM.UseSaveDM          .true.        # because of the bug
SCFMustConverge       .true.
NeglNonOverlapInt     F             # Default: F
#(5) Eigenvalue problem: order-N or diagonalization
SolutionMethod        Diagon        # or Transiesta
ElectronicTemperature 300.0 K       # Default: 300.0 K
#(6) Molecular dynamics and relaxations
#MD.TypeOfRun          CG            # Type of dynamics:
#MD.VariableCell       F
#MD.NumCGsteps         0           # 0 for single-point / 100 for gopt
#MD.MaxCGDispl         0.2 Bohr      # Default: 0.2 Bohr
#MD.MaxForceTol        0.02 eV/Ang   # Default: 0.04 eV/Ang
#MD.MaxStressTol       1.0 GPa       # Default: 1.0 GPa
# Geometry Constraints
#%block GeometryConstraints
#	position from 1 to 44
#%endblock GeometryConstraints
************************** End of input data file *****************************

reinit: -----------------------------------------------------------------------
reinit: System Name: GRP_doping
reinit: -----------------------------------------------------------------------
reinit: System Label: GRP_doping                                                  
reinit: -----------------------------------------------------------------------

initatom: Reading input for the pseudopotentials and atomic orbitals ----------
 Species number:            1  Label: B Atomic number:           5
 Species number:            2  Label: C Atomic number:           6
Ground state valence configuration:   2s02  2p01
Reading pseudopotential information in formatted form from B.psf

Valence configuration for pseudopotential generation:
2s( 2.00) rc: 1.74
2p( 1.00) rc: 1.74
3d( 0.00) rc: 1.74
4f( 0.00) rc: 1.74
Ground state valence configuration:   2s02  2p02
Reading pseudopotential information in formatted form from C.psf

Valence configuration for pseudopotential generation:
2s( 2.00) rc: 1.54
2p( 2.00) rc: 1.54
3d( 0.00) rc: 1.54
4f( 0.00) rc: 1.54
For B, standard SIESTA heuristics set lmxkb to 3
 (one more than the basis l, including polarization orbitals).
Use PS.lmax or PS.KBprojectors blocks to override.
For C, standard SIESTA heuristics set lmxkb to 3
 (one more than the basis l, including polarization orbitals).
Use PS.lmax or PS.KBprojectors blocks to override.

<basis_specs>
===============================================================================
B                    Z=   5    Mass=  10.810        Charge= 0.17977+309
Lmxo=1 Lmxkb= 3    BasisType=split      Semic=F
L=0  Nsemic=0  Cnfigmx=2
          n=1  nzeta=2  polorb=0
            splnorm:   0.15000    
               vcte:    0.0000    
               rinn:    0.0000    
                rcs:    0.0000      0.0000    
            lambdas:    1.0000      1.0000    
L=1  Nsemic=0  Cnfigmx=2
          n=1  nzeta=2  polorb=1
            splnorm:   0.15000    
               vcte:    0.0000    
               rinn:    0.0000    
                rcs:    0.0000      0.0000    
            lambdas:    1.0000      1.0000    
-------------------------------------------------------------------------------
L=0  Nkbl=1  erefs: 0.17977+309
L=1  Nkbl=1  erefs: 0.17977+309
L=2  Nkbl=1  erefs: 0.17977+309
L=3  Nkbl=1  erefs: 0.17977+309
===============================================================================
</basis_specs>

atom: Called for B                     (Z =   5)

read_vps: Pseudopotential generation method:
read_vps: ATM3      Troullier-Martins                       
Total valence charge:    3.00000

read_vps: Pseudopotential includes a core correction:
read_vps: Pseudo-core for xc-correction

xc_check: Exchange-correlation functional:
xc_check: GGA Perdew, Burke & Ernzerhof 1996
V l=0 = -2*Zval/r beyond r=  1.7165
V l=1 = -2*Zval/r beyond r=  1.7165
V l=2 = -2*Zval/r beyond r=  1.7165
V l=3 = -2*Zval/r beyond r=  1.6951
All V_l potentials equal beyond r=  1.7165
This should be close to max(r_c) in ps generation
All pots = -2*Zval/r beyond r=  1.7165

VLOCAL1: 99.0% of the norm of Vloc inside     14.733 Ry
VLOCAL1: 99.9% of the norm of Vloc inside     33.577 Ry
atom: Maximum radius for 4*pi*r*r*local-pseudopot. charge    2.04484
atom: Maximum radius for r*vlocal+2*Zval:    1.75994
GHOST: No ghost state for L =  0
GHOST: No ghost state for L =  1
GHOST: No ghost state for L =  2
GHOST: No ghost state for L =  3

KBgen: Kleinman-Bylander projectors: 
   l= 0   rc=  1.897051   el= -0.693730   Ekb=  4.595746   kbcos=  0.286105
   l= 1   rc=  1.920920   el= -0.265236   Ekb= -2.350715   kbcos= -0.315747
   l= 2   rc=  2.044840   el=  0.002055   Ekb= -0.690767   kbcos= -0.013822
   l= 3   rc=  2.149707   el=  0.003188   Ekb= -0.315358   kbcos= -0.002055

KBgen: Total number of  Kleinman-Bylander projectors:   16
atom: -------------------------------------------------------------------------

atom: SANKEY-TYPE ORBITALS:
atom: Selected multiple-zeta basis: split     

SPLIT: Orbitals with angular momentum L= 0

SPLIT: Basis orbitals for state 2s

SPLIT: PAO cut-off radius determined from an
SPLIT: energy shift=  0.007350 Ry

   izeta = 1
                 lambda =    1.000000
                     rc =    5.422032
                 energy =   -0.686029
                kinetic =    0.576707
    potential(screened) =   -1.262736
       potential(ionic) =   -3.271094

   izeta = 2
                 rmatch =    4.222573
              splitnorm =    0.150000
                 energy =   -0.602132
                kinetic =    0.858975
    potential(screened) =   -1.461107
       potential(ionic) =   -3.582536

SPLIT: Orbitals with angular momentum L= 1

SPLIT: Basis orbitals for state 2p

SPLIT: PAO cut-off radius determined from an
SPLIT: energy shift=  0.007350 Ry

   izeta = 1
                 lambda =    1.000000
                     rc =    6.790259
                 energy =   -0.258578
                kinetic =    1.481412
    potential(screened) =   -1.739989
       potential(ionic) =   -3.657461

   izeta = 2
                 rmatch =    4.608740
              splitnorm =    0.150000
                 energy =   -0.173757
                kinetic =    2.186690
    potential(screened) =   -2.360447
       potential(ionic) =   -4.464260

POLgen: Perturbative polarization orbital with L=  2

POLgen: Polarization orbital for state 2p

   izeta = 1
                     rc =    6.790259
                 energy =    0.684082
                kinetic =    1.471481
    potential(screened) =   -0.787399
       potential(ionic) =   -2.406985
atom: Total number of Sankey-type orbitals: 13

atm_pop: Valence configuration (for local Pseudopot. screening):
 2s( 2.00)                                                            
 2p( 1.00)                                                            
Vna: chval, zval:    3.00000   3.00000

Vna:  Cut-off radius for the neutral-atom potential:   6.790259
comcore: Pseudo-core radius Rcore=  2.122997

atom: _________________________________________________________________________

<basis_specs>
===============================================================================
C                    Z=   6    Mass=  12.010        Charge= 0.17977+309
Lmxo=1 Lmxkb= 3    BasisType=split      Semic=F
L=0  Nsemic=0  Cnfigmx=2
          n=1  nzeta=2  polorb=0
            splnorm:   0.15000    
               vcte:    0.0000    
               rinn:    0.0000    
                rcs:    0.0000      0.0000    
            lambdas:    1.0000      1.0000    
L=1  Nsemic=0  Cnfigmx=2
          n=1  nzeta=2  polorb=1
            splnorm:   0.15000    
               vcte:    0.0000    
               rinn:    0.0000    
                rcs:    0.0000      0.0000    
            lambdas:    1.0000      1.0000    
-------------------------------------------------------------------------------
L=0  Nkbl=1  erefs: 0.17977+309
L=1  Nkbl=1  erefs: 0.17977+309
L=2  Nkbl=1  erefs: 0.17977+309
L=3  Nkbl=1  erefs: 0.17977+309
===============================================================================
</basis_specs>

atom: Called for C                     (Z =   6)

read_vps: Pseudopotential generation method:
read_vps: ATM3      Troullier-Martins                       
Total valence charge:    4.00000

read_vps: Pseudopotential includes a core correction:
read_vps: Pseudo-core for xc-correction

xc_check: Exchange-correlation functional:
xc_check: GGA Perdew, Burke & Ernzerhof 1996
V l=0 = -2*Zval/r beyond r=  1.5227
V l=1 = -2*Zval/r beyond r=  1.5227
V l=2 = -2*Zval/r beyond r=  1.5227
V l=3 = -2*Zval/r beyond r=  1.5038
All V_l potentials equal beyond r=  1.5227
This should be close to max(r_c) in ps generation
All pots = -2*Zval/r beyond r=  1.5227

VLOCAL1: 99.0% of the norm of Vloc inside     18.722 Ry
VLOCAL1: 99.9% of the norm of Vloc inside     42.668 Ry
atom: Maximum radius for 4*pi*r*r*local-pseudopot. charge    1.83678
atom: Maximum radius for r*vlocal+2*Zval:    1.58088
GHOST: No ghost state for L =  0
GHOST: No ghost state for L =  1
GHOST: No ghost state for L =  2
GHOST: No ghost state for L =  3

KBgen: Kleinman-Bylander projectors: 
   l= 0   rc=  1.704034   el= -1.009801   Ekb=  5.335044   kbcos=  0.316824
   l= 1   rc=  1.704034   el= -0.388707   Ekb= -3.785862   kbcos= -0.366464
   l= 2   rc=  1.791422   el=  0.001971   Ekb= -0.970471   kbcos= -0.009212
   l= 3   rc=  1.859892   el=  0.003065   Ekb= -0.399525   kbcos= -0.001223

KBgen: Total number of  Kleinman-Bylander projectors:   16
atom: -------------------------------------------------------------------------

atom: SANKEY-TYPE ORBITALS:
atom: Selected multiple-zeta basis: split     

SPLIT: Orbitals with angular momentum L= 0

SPLIT: Basis orbitals for state 2s

SPLIT: PAO cut-off radius determined from an
SPLIT: energy shift=  0.007350 Ry

   izeta = 1
                 lambda =    1.000000
                     rc =    4.632753
                 energy =   -1.002270
                kinetic =    0.855760
    potential(screened) =   -1.858031
       potential(ionic) =   -5.417575

   izeta = 2
                 rmatch =    3.431921
              splitnorm =    0.150000
                 energy =   -0.867111
                kinetic =    1.300804
    potential(screened) =   -2.167915
       potential(ionic) =   -5.962684

SPLIT: Orbitals with angular momentum L= 1

SPLIT: Basis orbitals for state 2p

SPLIT: PAO cut-off radius determined from an
SPLIT: energy shift=  0.007350 Ry

   izeta = 1
                 lambda =    1.000000
                     rc =    5.658549
                 energy =   -0.381140
                kinetic =    2.399701
    potential(screened) =   -2.780841
       potential(ionic) =   -6.206085

   izeta = 2
                 rmatch =    3.653288
              splitnorm =    0.150000
                 energy =   -0.249149
                kinetic =    3.542762
    potential(screened) =   -3.791911
       potential(ionic) =   -7.581078

POLgen: Perturbative polarization orbital with L=  2

POLgen: Polarization orbital for state 2p

   izeta = 1
                     rc =    5.658549
                 energy =    1.109913
                kinetic =    2.304789
    potential(screened) =   -1.194876
       potential(ionic) =   -4.013592
atom: Total number of Sankey-type orbitals: 13

atm_pop: Valence configuration (for local Pseudopot. screening):
 2s( 2.00)                                                            
 2p( 2.00)                                                            
Vna: chval, zval:    4.00000   4.00000

Vna:  Cut-off radius for the neutral-atom potential:   5.658549
comcore: Pseudo-core radius Rcore=  1.791422

atom: _________________________________________________________________________

prinput: Basis input ----------------------------------------------------------

PAO.BasisType split     

%block ChemicalSpeciesLabel
    1    5 B                       # Species index, atomic number, species label
    2    6 C                       # Species index, atomic number, species label
%endblock ChemicalSpeciesLabel

%block PAO.Basis                 # Define Basis set
B                     2                    # Species label, number of l-shells
 n=2   0   2                         # n, l, Nzeta 
   5.422      4.223   
   1.000      1.000   
 n=2   1   2 P   1                   # n, l, Nzeta, Polarization, NzetaPol
   6.790      4.609   
   1.000      1.000   
C                     2                    # Species label, number of l-shells
 n=2   0   2                         # n, l, Nzeta 
   4.633      3.432   
   1.000      1.000   
 n=2   1   2 P   1                   # n, l, Nzeta, Polarization, NzetaPol
   5.659      3.653   
   1.000      1.000   
%endblock PAO.Basis

prinput: ----------------------------------------------------------------------

coor:   Atomic-coordinates input format  =     Cartesian coordinates
coor:                                          (in Angstroms)

siesta: Atomic coordinates (Bohr) and species
siesta:      2.23554   1.32097   0.00000  1        1
siesta:     32.50328  21.48508   0.00000  1        2
siesta:     37.15930  18.79590   0.00000  1        3
siesta:     32.50278  10.73026   0.00000  1        4
siesta:      9.21981   2.66461   0.00000  1        5
siesta:     11.54782   1.32097   0.00000  1        6
siesta:     18.53210   2.66461   0.00000  1        7
siesta:     20.86199   1.32097   0.00000  1        8
siesta:     27.84627   2.66461   0.00000  1        9
siesta:      4.56380   5.35379   0.00000  1       10
siesta:     13.87608   5.35379   0.00000  1       11
siesta:     23.19025   5.35379   0.00000  1       12
siesta:      6.89205   9.38661   0.00000  1       13
siesta:     13.87633  10.73026   0.00000  1       14
siesta:     16.20434   9.38661   0.00000  1       15
siesta:     23.19050  10.73026   0.00000  1       16
siesta:      9.22031  13.41944   0.00000  1       17
siesta:     18.53448  13.41944   0.00000  1       18
siesta:     11.54857  17.45226   0.00000  1       19
siesta:     18.53284  18.79590   0.00000  1       20
siesta:     13.87683  21.48508   0.00000  1       21
siesta:     25.51851   9.38661   0.00000  1       22
siesta:     20.86274  17.45226   0.00000  1       23
siesta:     27.84677  13.41944   0.00000  1       24
siesta:     27.84702  18.79590   0.00000  1       25
siesta:     23.19100  21.48508   0.00000  1       26
siesta:     30.17503  17.45226   0.00000  1       27
siesta:      4.56367   2.66461   0.00000  2       28
siesta:     34.83141  22.82873   0.00000  2       29
siesta:     34.83116  17.45226   0.00000  2       30
siesta:     32.50291  13.41944   0.00000  2       31
siesta:     34.83104  14.76308   0.00000  2       32
siesta:     30.17465   9.38661   0.00000  2       33
siesta:     27.84639   5.35379   0.00000  2       34
siesta:     30.17453   6.69743   0.00000  2       35
siesta:     27.84714  21.48508   0.00000  2       36
siesta:     30.17527  22.82873   0.00000  2       37
siesta:      6.89168   1.32097   0.00000  2       38
siesta:     13.87595   2.66461   0.00000  2       39
siesta:     16.20396   1.32097   0.00000  2       40
siesta:     23.19013   2.66461   0.00000  2       41
siesta:     25.51813   1.32097   0.00000  2       42
siesta:      6.89193   6.69743   0.00000  2       43
siesta:      9.21994   5.35379   0.00000  2       44
siesta:     11.54807   6.69743   0.00000  2       45
siesta:     16.20421   6.69743   0.00000  2       46
siesta:     18.53411   5.35379   0.00000  2       47
siesta:     20.86224   6.69743   0.00000  2       48
siesta:     25.51838   6.69743   0.00000  2       49
siesta:      9.22019  10.73026   0.00000  2       50
siesta:     11.54820   9.38661   0.00000  2       51
siesta:     18.53247  10.73026   0.00000  2       52
siesta:     20.86237   9.38661   0.00000  2       53
siesta:     11.54845  14.76308   0.00000  2       54
siesta:     13.87645  13.41944   0.00000  2       55
siesta:     16.20459  14.76308   0.00000  2       56
siesta:     20.86262  14.76308   0.00000  2       57
siesta:     13.87670  18.79590   0.00000  2       58
siesta:     16.20471  17.45226   0.00000  2       59
siesta:     16.20496  22.82873   0.00000  2       60
siesta:     18.53486  21.48508   0.00000  2       61
siesta:     20.86299  22.82873   0.00000  2       62
siesta:     27.84664  10.73026   0.00000  2       63
siesta:     23.19063  13.41944   0.00000  2       64
siesta:     25.51876  14.76308   0.00000  2       65
siesta:     23.19088  18.79590   0.00000  2       66
siesta:     30.17490  14.76308   0.00000  2       67
siesta:     25.51888  17.45226   0.00000  2       68
siesta:     25.51913  22.82873   0.00000  2       69
siesta:     32.50316  18.79590   0.00000  2       70
siesta:     37.16131  21.48508   0.00000  2       71
siesta:     39.48945  22.82873   0.00000  2       72

siesta: System type = slab      

initatomlists: Number of atoms, orbitals, and projectors:     72   936  1152

siesta: ******************** Simulation parameters ****************************
siesta:
siesta: The following are some of the parameters of the simulation.
siesta: A complete list of the parameters used, including default values,
siesta: can be found in file out.fdf
siesta:
redata: Non-Collinear-spin run           =     F
redata: SpinPolarized (Up/Down) run      =     F
redata: Number of spin components        =     1
redata: Long output                      =     F
redata: Number of Atomic Species         =        2
redata: Charge density info will appear in .RHO file
redata: Write Mulliken Pop.              =     NO
redata: Mesh Cutoff                      =   200.0000  Ry
redata: Net charge of the system         =     0.0000 |e|
redata: Max. number of SCF Iter          =      500
redata: SCF convergence failure will abort job
redata: Performing Pulay mixing using    =    10 iterations
redata: Mix DM in first SCF step ?       =     F
redata: Write Pulay info on disk?        =     F
redata: Discard 1st Pulay DM after  kick =     F
redata: New DM Mixing Weight             =     0.0500
redata: New DM Occupancy tolerance       = 0.000000000001
redata: No kicks to SCF
redata: DM Mixing Weight for Kicks       =     0.5000
redata: DM Tolerance for SCF             =     0.000100
redata: Require Energy convergence for SCF =     F
redata: DM Energy tolerance for SCF      =     0.000100 eV
redata: Require Harris convergence for SCF =     F
redata: DM Harris energy tolerance for SCF =     0.000100 eV
redata: Using Saved Data (generic)   =     F
redata: Use continuation files for DM    =     T
redata: Neglect nonoverlap interactions  =     F
redata: Method of Calculation            =     Diagonalization
redata: Divide and Conquer               =     T
redata: Electronic Temperature           =     0.0019  Ry
redata: Fix the spin of the system       =     F
redata: Dynamics option                  =     Verlet MD run
redata: Initial MD time step             =        1
redata:   Final MD time step             =        1
redata: Length of MD time step           =     1.0000  fs
redata: Initial Temperature of MD run    =     0.0000  K
redata: Perform a MD quench              =     F
redata: ***********************************************************************
Total number of electrons:   261.000000
Total ionic charge:   261.000000

* ProcessorY, Blocksize:    2  24

k-point displ. along   1 input, could be:     0.00    0.50
k-point displ. along   2 input, could be:     0.00    0.50
 Kpoints in:          364 . Kpoints trimmed:          352

siesta: k-grid: Number of k-points =   352
siesta: k-grid: Cutoff (effective) =     5.000 Ang
siesta: k-grid: Supercell and displacements
siesta: k-grid:   26   0   0      0.000
siesta: k-grid:    0  26   0      0.000
siesta: k-grid:    0   0   1      0.000
Naive supercell factors:     2    2    2

superc: Internal auxiliary supercell:     2 x     2 x     2  =       8
superc: Number of atoms, orbitals, and projectors:    576   7488   9216

* Maximum dynamic memory allocated =     6 MB

siesta:                 ==============================
                            Begin MD step =      1
                        ==============================

superc: Internal auxiliary supercell:     2 x     2 x     2  =       8
superc: Number of atoms, orbitals, and projectors:    576   7488   9216

outcell: Unit cell vectors (Ang):
       14.785000    0.000000    0.000000
        7.393000   12.805052    0.000000
        0.000000    0.000000   10.000000

outcell: Cell vector modules (Ang)   :   14.785000   14.786000   10.000000
outcell: Cell angles (23,13,12) (deg):     90.0000     90.0000     60.0000
outcell: Cell volume (Ang**3)        :   1893.2269
New_DM. Step:     1
Initializing Density Matrix...

InitMesh: MESH =   120 x   120 x    90 =     1296000
InitMesh: Mesh cutoff (required, used) =   200.000   223.865 Ry

* Maximum dynamic memory allocated =   231 MB

stepf: Fermi-Dirac step function

siesta: Program's energy decomposition (eV):
siesta: Ebs     =     -4193.426380
siesta: Eions   =     14945.479869
siesta: Ena     =      3357.638374
siesta: Ekin    =      4954.252969
siesta: Enl     =       454.358358
siesta: DEna    =        -0.000005
siesta: DUscf   =         0.000000
siesta: DUext   =         0.000000
siesta: Exc     =     -4005.503848
siesta: eta*DQ  =         0.000000
siesta: Emadel  =         0.000000
siesta: Emeta   =         0.000000
siesta: Emolmec =         0.000000
siesta: Ekinion =         0.000000
siesta: Eharris =    -10091.967279
siesta: Etot    =    -10184.734019
siesta: FreeEng =    -10184.734019

siesta: iscf   Eharris(eV)      E_KS(eV)   FreeEng(eV)   dDmax  Ef(eV)
siesta:    1   -10091.9673   -10184.7340   -10184.7340  1.8636 -9.5148
timer: Routine,Calls,Time,% = IterSCF        1    6896.689  99.83
elaps: Routine,Calls,Wall,% = IterSCF        1     863.141  99.83
siesta:    2   -10085.4258   -10019.3444   -10019.3817  0.9201 -3.6745
siesta:    3   -10052.6054   -10097.8570   -10097.9345  0.7734 -6.2743
siesta:    4   -10053.3939   -10096.6619   -10096.6927  0.7691 -6.1699
siesta:    5   -10053.9020   -10065.9032   -10065.9308  0.2641 -6.4515
siesta:    6   -10051.8370   -10054.2377   -10054.2748  0.1315 -6.1439
siesta:    7   -10049.6779   -10050.3992   -10050.4341  0.0452 -6.2702
siesta:    8   -10049.3693   -10048.4741   -10048.5107  0.0105 -6.3460
siesta:    9   -10049.3435   -10048.7167   -10048.7551  0.0111 -6.3452
siesta:   10   -10049.3373   -10048.9144   -10048.9524  0.0078 -6.3379
siesta:   11   -10049.3345   -10049.0766   -10049.1145  0.0058 -6.3283
siesta:   12   -10049.3327   -10049.2968   -10049.3347  0.0027 -6.3168
siesta:   13   -10049.3325   -10049.3379   -10049.3759  0.0016 -6.3137
siesta:   14   -10049.3323   -10049.3579   -10049.3958  0.0006 -6.3117
siesta:   15   -10049.3322   -10049.3522   -10049.3902  0.0003 -6.3120
siesta:   16   -10049.3322   -10049.3449   -10049.3829  0.0003 -6.3121
siesta:   17   -10049.3322   -10049.3412   -10049.3791  0.0002 -6.3129
siesta:   18   -10049.3322   -10049.3432   -10049.3812  0.0002 -6.3131
siesta:   19   -10049.3322   -10049.3402   -10049.3782  0.0001 -6.3131
siesta:   20   -10049.3322   -10049.3363   -10049.3743  0.0001 -6.3133

siesta: E_KS(eV) =           -10049.3321

siesta: E_KS - E_eggbox =    -10049.3321

siesta: Atomic forces (eV/Ang):
----------------------------------------
   Tot    0.436894    0.280905    0.000000
----------------------------------------
   Max    4.642730
   Res    2.419874    sqrt( Sum f_i^2 / 3N )
----------------------------------------
   Max    4.642730    constrained

Stress-tensor-Voigt (kbar):     -262.95     -264.84       -0.72       -4.43        0.00        0.00
(Free)E + p*V (eV/cell)    -9841.1977
Target enthalpy (eV/cell)   -10049.3701

siesta: Stress tensor (static) (eV/Ang**3):
        -0.164122   -0.002765    0.000000
        -0.002765   -0.165299    0.000000
         0.000000    0.000000   -0.000448

siesta: Pressure (static):        176.17146241  kBar

siesta: Stress tensor (total) (eV/Ang**3):
        -0.164122   -0.002765    0.000000
        -0.002765   -0.165299    0.000000
         0.000000    0.000000   -0.000448

siesta: Pressure (total):        176.17146241  kBar

siesta: Temp_ion =       0.000 K

* Maximum dynamic memory allocated =   245 MB

siesta: Program's energy decomposition (eV):
siesta: Ebs     =     -3295.879681
siesta: Eions   =     14945.479869
siesta: Ena     =      3357.638374
siesta: Ekin    =      6509.293823
siesta: Enl     =      -481.780973
siesta: DEna    =      -406.025593
siesta: DUscf   =        45.947558
siesta: DUext   =         0.000000
siesta: Exc     =     -4128.925464
siesta: eta*DQ  =         0.000000
siesta: Emadel  =         0.000000
siesta: Emeta   =         0.000000
siesta: Emolmec =         0.000000
siesta: Ekinion =         0.000000
siesta: Eharris =    -10049.332177
siesta: Etot    =    -10049.332144
siesta: FreeEng =    -10049.370125

siesta: Final energy (eV):
siesta:  Band Struct. =   -3295.879681
siesta:       Kinetic =    6509.293823
siesta:       Hartree =   18849.103994
siesta:    Ext. field =       0.000000
siesta:   Exch.-corr. =   -4128.925464
siesta:  Ion-electron =  -43530.299949
siesta:       Ion-ion =   12251.495452
siesta:       Ekinion =       0.000000
siesta:         Total =  -10049.332144

siesta: Atomic forces (eV/Ang):
siesta:      1    4.616606   -2.666306    0.000000
siesta:      2    0.264898   -0.124359    0.000000
siesta:      3   -4.019500    2.318408    0.000000
siesta:      4   -4.016544    2.318342    0.000000
siesta:      5   -4.033011    2.324230    0.000000
siesta:      6    4.625766   -2.676483    0.000000
siesta:      7   -4.003143    2.301809    0.000000
siesta:      8    4.601974   -2.653776    0.000000
siesta:      9   -4.021021    2.312588    0.000000
siesta:     10    0.242707   -0.121364    0.000000
siesta:     11    0.263886   -0.129950    0.000000
siesta:     12    0.261680   -0.130359    0.000000
siesta:     13    4.610115   -2.644026    0.000000
siesta:     14   -4.036239    2.327479    0.000000
siesta:     15    4.642730   -2.653441    0.000000
siesta:     16   -4.040592    2.327576    0.000000
siesta:     17    0.243117   -0.121277    0.000000
siesta:     18    0.227408   -0.114285    0.000000
siesta:     19    4.616813   -2.641911    0.000000
siesta:     20   -4.001167    2.305759    0.000000
siesta:     21    0.285220   -0.134628    0.000000
siesta:     22    4.629015   -2.653762    0.000000
siesta:     23    4.598197   -2.630686    0.000000
siesta:     24    0.257237   -0.129573    0.000000
siesta:     25   -4.032578    2.327807    0.000000
siesta:     26    0.258951   -0.125656    0.000000
siesta:     27    4.627446   -2.653640    0.000000
siesta:     28    3.269347   -2.427465    0.000000
siesta:     29    3.756661   -1.585553    0.000000
siesta:     30   -3.901851   -2.044929    0.000000
siesta:     31   -0.181773    4.393533    0.000000
siesta:     32   -3.710944    2.149616    0.000000
siesta:     33   -3.904276   -2.047005    0.000000
siesta:     34   -0.180226    4.394916    0.000000
siesta:     35   -3.710864    2.148904    0.000000
siesta:     36   -0.186527    4.397941    0.000000
siesta:     37   -3.729547    2.176304    0.000000
siesta:     38   -3.902899   -2.060940    0.000000
siesta:     39    3.274221   -2.427115    0.000000
siesta:     40   -3.899316   -2.061119    0.000000
siesta:     41    3.265253   -2.428779    0.000000
siesta:     42   -3.900237   -2.059555    0.000000
siesta:     43    3.738245   -1.598367    0.000000
siesta:     44   -0.185368    4.394606    0.000000
siesta:     45   -3.726222    2.157139    0.000000
siesta:     46    3.758527   -1.610274    0.000000
siesta:     47   -0.203991    4.404179    0.000000
siesta:     48   -3.737286    2.158022    0.000000
siesta:     49    3.738453   -1.599084    0.000000
siesta:     50    3.271145   -2.419736    0.000000
siesta:     51   -3.905740   -2.045806    0.000000
siesta:     52    3.293972   -2.431660    0.000000
siesta:     53   -3.926778   -2.035966    0.000000
siesta:     54    3.733992   -1.598723    0.000000
siesta:     55   -0.176766    4.394715    0.000000
siesta:     56   -3.695325    2.142153    0.000000
siesta:     57    3.728265   -1.599186    0.000000
siesta:     58    3.265082   -2.421172    0.000000
siesta:     59   -3.897892   -2.044995    0.000000
siesta:     60    3.761127   -1.585224    0.000000
siesta:     61   -0.203195    4.407784    0.000000
siesta:     62   -3.737066    2.173342    0.000000
siesta:     63    3.272392   -2.420057    0.000000
siesta:     64   -0.179725    4.394493    0.000000
siesta:     65   -3.727477    2.156721    0.000000
siesta:     66    3.268338   -2.420649    0.000000
siesta:     67    3.740162   -1.598336    0.000000
siesta:     68   -3.906277   -2.044939    0.000000
siesta:     69    3.742156   -1.576575    0.000000
siesta:     70    3.269291   -2.420271    0.000000
siesta:     71   -0.205006    4.408805    0.000000
siesta:     72   -3.757132    2.182698    0.000000
siesta: ----------------------------------------
siesta:    Tot    0.436894    0.280905    0.000000

siesta: Stress tensor (static) (eV/Ang**3):
siesta:    -0.164122   -0.002765    0.000000
siesta:    -0.002765   -0.165299    0.000000
siesta:     0.000000    0.000000   -0.000448

siesta: Cell volume =       1893.226895 Ang**3

siesta: Pressure (static):
siesta:                Solid            Molecule  Units
siesta:           0.00119757          0.00153132  Ry/Bohr**3
siesta:           0.10995639          0.14060042  eV/Ang**3
siesta:         176.17146241        225.26914191  kBar
(Free)E+ p_basis*V_orbitals  =      -10010.101767
(Free)Eharris+ p_basis*V_orbitals  =      -10010.097665

siesta: Electric dipole (a.u.)  =    0.000000    0.000000    0.000000
siesta: Electric dipole (Debye) =    0.000000    0.000000    0.000000

* Maximum dynamic memory allocated : Node    0 =   244 MB
* Maximum dynamic memory allocated : Node    1 =    88 MB
* Maximum dynamic memory allocated : Node    2 =    92 MB
* Maximum dynamic memory allocated : Node    3 =   231 MB
* Maximum dynamic memory allocated : Node    4 =   245 MB
* Maximum dynamic memory allocated : Node    5 =    88 MB
* Maximum dynamic memory allocated : Node    6 =    91 MB
* Maximum dynamic memory allocated : Node    7 =   226 MB

* Maximum memory occured during matrixMtoO                    

timer: CPU execution times:
timer:  Routine       Calls   Time/call    Tot.time        %
timer:  siesta            1  136735.440  136735.440   100.00
timer:  Setup             1       3.065       3.065     0.00
timer:  bands             1       0.010       0.010     0.00
timer:  writewave         1       0.017       0.017     0.00
timer:  KSV_init          1       0.000       0.000     0.00
timer:  IterMD            1  136724.255  136724.255    99.99
timer:  hsparse           1       0.391       0.391     0.00
timer:  overlap           1       7.811       7.811     0.01
timer:  IterSCF          20    6824.659  136493.184    99.82
timer:  kinefsm           2       4.050       8.099     0.01
timer:  nlefsm            2      22.135      44.269     0.03
timer:  DHSCF            21     132.667    2786.001     2.04
timer:  DHSCF1            1       0.994       0.994     0.00
timer:  DHSCF2            1      44.922      44.922     0.03
timer:  REORD           170       0.010       1.714     0.00
timer:  POISON           22       2.249      49.473     0.04
timer:  DHSCF3           21     128.304    2694.378     1.97
timer:  rhoofd           21      25.593     537.460     0.39
timer:  cellXC           21       3.549      74.523     0.05
timer:  vmat             21      63.559    1334.748     0.98
timer:  MolMec            2       0.000       0.000     0.00
timer:  diagon           20    6690.568  133811.356    97.86
timer:  c-eigval       7040       6.704   47198.465    34.52
timer:  c-buildHS      7040       0.127     896.752     0.66
timer:  cdiag         14080       6.885   96938.435    70.89
timer:  cdiag1        14080       0.427    6005.170     4.39
timer:  cdiag2        14080       1.912   26916.222    19.68
timer:  cdiag3        14080       3.960   55762.404    40.78
timer:  cdiag4        14080       0.223    3137.023     2.29
timer:  c-eigvec       7040       7.271   51184.831    37.43
timer:  c-buildD       7040       5.024   35369.526    25.87
timer:  DHSCF4            1      44.578      44.578     0.03
timer:  dfscf             1      41.879      41.879     0.03
timer:  overfsm           1       0.490       0.490     0.00
timer:  optical           1       7.100       7.100     0.01
  

elaps: ELAPSED times:
elaps:  Routine       Calls   Time/call    Tot.time        %
elaps:  siesta            1   17112.155   17112.155   100.00
elaps:  Setup             1       0.382       0.382     0.00
elaps:  bands             1       0.001       0.001     0.00
elaps:  writewave         1       0.002       0.002     0.00
elaps:  KSV_init          1       0.000       0.000     0.00
elaps:  IterMD            1   17110.757   17110.757    99.99
elaps:  hsparse           1       0.049       0.049     0.00
elaps:  overlap           1       0.989       0.989     0.01
elaps:  IterSCF          20     854.093   17081.852    99.82
elaps:  kinefsm           2       0.509       1.018     0.01
elaps:  nlefsm            2       2.812       5.623     0.03
elaps:  DHSCF            21      16.792     352.638     2.06
elaps:  DHSCF1            1       0.127       0.127     0.00
elaps:  DHSCF2            1       5.614       5.614     0.03
elaps:  REORD           170       0.001       0.228     0.00
elaps:  POISON           22       0.281       6.190     0.04
elaps:  DHSCF3           21      16.051     337.065     1.97
elaps:  rhoofd           21       5.223     109.677     0.64
elaps:  cellXC           21       0.443       9.306     0.05
elaps:  vmat             21       7.951     166.968     0.98
elaps:  MolMec            2       0.000       0.000     0.00
elaps:  diagon           20     837.337   16746.749    97.86
elaps:  c-eigval       7040       0.839    5905.291    34.51
elaps:  c-buildHS      7040       0.017     122.753     0.72
elaps:  cdiag         14080       0.850   11972.688    69.97
elaps:  cdiag1        14080       0.053     746.577     4.36
elaps:  cdiag2        14080       0.239    3367.812    19.68
elaps:  cdiag3        14080       0.496    6986.356    40.83
elaps:  cdiag4        14080       0.028     396.223     2.32
elaps:  c-eigvec       7040       0.891    6276.044    36.68
elaps:  c-buildD       7040       0.647    4557.057    26.63
elaps:  DHSCF4            1       9.680       9.680     0.06
elaps:  dfscf             1       9.162       9.162     0.05
elaps:  overfsm           1       0.063       0.063     0.00
elaps:  optical           1       0.000       0.000     0.00
  
>> End of run:   4-DEC-2015  23:31:50
