Siesta Version:                                        siesta-3.2-pl-3
Architecture  : x86_64-unknown-linux-gnu--unknown
Compiler flags: mpiifort -g -O2 -fPIC -xSSE4.1 -fp-model source -shared-intel 
PARALLEL version

* Running on    8 nodes in parallel
>> Start of run:   4-DEC-2015  20:07:05

                           ***********************       
                           *  WELCOME TO SIESTA  *       
                           ***********************       

reinit: Reading from standard input
************************** Dump of input data file ****************************
#(1) General system descriptors
SystemName            GRP_doping    # Descriptive name of the system
SystemLabel           GRP_doping    # Short name for naming files
%include STRUCT.fdf
%include KPT.fdf
%include BASIS.fdf
#%include TS.fdf # for transiesta calculation
#(4) DFT, Grid, SCF
XC.functional         GGA           # LDA or GGA (default = LDA)
XC.authors            PBE           # CA (Ceperley-Aldr) = PZ
                                    #    (Perdew-Zunger) - LDA - Default
                                    # PW92 (Perdew-Wang-92) - LDA
                                    # PBE (Perdew-Burke-Ernzerhof) - GGA
MeshCutoff            200.000000    Ry      # Default: 50.0 Ry ~ 0.444 Bohr
                                    #         100.0 Ry ~ 0.314 Bohr
MaxSCFIterations      500           # Default: 50
DM.MixingWeight       0.05          # Default: 0.25
DM.NumberPulay        10            # Default: 0
DM.PulayOnFile        F             # SystemLabel.P1, SystemLabel.P2
DM.Tolerance          1.d-4         # Default: 1.d-4
DM.UseSaveDM          .true.        # because of the bug
SCFMustConverge       .true.
NeglNonOverlapInt     F             # Default: F
#(5) Eigenvalue problem: order-N or diagonalization
SolutionMethod        Diagon        # or Transiesta
ElectronicTemperature 300.0 K       # Default: 300.0 K
#(6) Molecular dynamics and relaxations
#MD.TypeOfRun          CG            # Type of dynamics:
#MD.VariableCell       F
#MD.NumCGsteps         0           # 0 for single-point / 100 for gopt
#MD.MaxCGDispl         0.2 Bohr      # Default: 0.2 Bohr
#MD.MaxForceTol        0.02 eV/Ang   # Default: 0.04 eV/Ang
#MD.MaxStressTol       1.0 GPa       # Default: 1.0 GPa
# Geometry Constraints
#%block GeometryConstraints
#	position from 1 to 44
#%endblock GeometryConstraints
************************** End of input data file *****************************

reinit: -----------------------------------------------------------------------
reinit: System Name: GRP_doping
reinit: -----------------------------------------------------------------------
reinit: System Label: GRP_doping                                                  
reinit: -----------------------------------------------------------------------

initatom: Reading input for the pseudopotentials and atomic orbitals ----------
 Species number:            1  Label: B Atomic number:           5
 Species number:            2  Label: C Atomic number:           6
Ground state valence configuration:   2s02  2p01
Reading pseudopotential information in formatted form from B.psf

Valence configuration for pseudopotential generation:
2s( 2.00) rc: 1.74
2p( 1.00) rc: 1.74
3d( 0.00) rc: 1.74
4f( 0.00) rc: 1.74
Ground state valence configuration:   2s02  2p02
Reading pseudopotential information in formatted form from C.psf

Valence configuration for pseudopotential generation:
2s( 2.00) rc: 1.54
2p( 2.00) rc: 1.54
3d( 0.00) rc: 1.54
4f( 0.00) rc: 1.54
For B, standard SIESTA heuristics set lmxkb to 3
 (one more than the basis l, including polarization orbitals).
Use PS.lmax or PS.KBprojectors blocks to override.
For C, standard SIESTA heuristics set lmxkb to 3
 (one more than the basis l, including polarization orbitals).
Use PS.lmax or PS.KBprojectors blocks to override.

<basis_specs>
===============================================================================
B                    Z=   5    Mass=  10.810        Charge= 0.17977+309
Lmxo=1 Lmxkb= 3    BasisType=split      Semic=F
L=0  Nsemic=0  Cnfigmx=2
          n=1  nzeta=2  polorb=0
            splnorm:   0.15000    
               vcte:    0.0000    
               rinn:    0.0000    
                rcs:    0.0000      0.0000    
            lambdas:    1.0000      1.0000    
L=1  Nsemic=0  Cnfigmx=2
          n=1  nzeta=2  polorb=1
            splnorm:   0.15000    
               vcte:    0.0000    
               rinn:    0.0000    
                rcs:    0.0000      0.0000    
            lambdas:    1.0000      1.0000    
-------------------------------------------------------------------------------
L=0  Nkbl=1  erefs: 0.17977+309
L=1  Nkbl=1  erefs: 0.17977+309
L=2  Nkbl=1  erefs: 0.17977+309
L=3  Nkbl=1  erefs: 0.17977+309
===============================================================================
</basis_specs>

atom: Called for B                     (Z =   5)

read_vps: Pseudopotential generation method:
read_vps: ATM3      Troullier-Martins                       
Total valence charge:    3.00000

read_vps: Pseudopotential includes a core correction:
read_vps: Pseudo-core for xc-correction

xc_check: Exchange-correlation functional:
xc_check: GGA Perdew, Burke & Ernzerhof 1996
V l=0 = -2*Zval/r beyond r=  1.7165
V l=1 = -2*Zval/r beyond r=  1.7165
V l=2 = -2*Zval/r beyond r=  1.7165
V l=3 = -2*Zval/r beyond r=  1.6951
All V_l potentials equal beyond r=  1.7165
This should be close to max(r_c) in ps generation
All pots = -2*Zval/r beyond r=  1.7165

VLOCAL1: 99.0% of the norm of Vloc inside     14.733 Ry
VLOCAL1: 99.9% of the norm of Vloc inside     33.577 Ry
atom: Maximum radius for 4*pi*r*r*local-pseudopot. charge    2.04484
atom: Maximum radius for r*vlocal+2*Zval:    1.75994
GHOST: No ghost state for L =  0
GHOST: No ghost state for L =  1
GHOST: No ghost state for L =  2
GHOST: No ghost state for L =  3

KBgen: Kleinman-Bylander projectors: 
   l= 0   rc=  1.897051   el= -0.693730   Ekb=  4.595746   kbcos=  0.286105
   l= 1   rc=  1.920920   el= -0.265236   Ekb= -2.350715   kbcos= -0.315747
   l= 2   rc=  2.044840   el=  0.002055   Ekb= -0.690767   kbcos= -0.013822
   l= 3   rc=  2.149707   el=  0.003188   Ekb= -0.315358   kbcos= -0.002055

KBgen: Total number of  Kleinman-Bylander projectors:   16
atom: -------------------------------------------------------------------------

atom: SANKEY-TYPE ORBITALS:
atom: Selected multiple-zeta basis: split     

SPLIT: Orbitals with angular momentum L= 0

SPLIT: Basis orbitals for state 2s

SPLIT: PAO cut-off radius determined from an
SPLIT: energy shift=  0.007350 Ry

   izeta = 1
                 lambda =    1.000000
                     rc =    5.422032
                 energy =   -0.686029
                kinetic =    0.576707
    potential(screened) =   -1.262736
       potential(ionic) =   -3.271094

   izeta = 2
                 rmatch =    4.222573
              splitnorm =    0.150000
                 energy =   -0.602132
                kinetic =    0.858975
    potential(screened) =   -1.461107
       potential(ionic) =   -3.582536

SPLIT: Orbitals with angular momentum L= 1

SPLIT: Basis orbitals for state 2p

SPLIT: PAO cut-off radius determined from an
SPLIT: energy shift=  0.007350 Ry

   izeta = 1
                 lambda =    1.000000
                     rc =    6.790259
                 energy =   -0.258578
                kinetic =    1.481412
    potential(screened) =   -1.739989
       potential(ionic) =   -3.657461

   izeta = 2
                 rmatch =    4.608740
              splitnorm =    0.150000
                 energy =   -0.173757
                kinetic =    2.186690
    potential(screened) =   -2.360447
       potential(ionic) =   -4.464260

POLgen: Perturbative polarization orbital with L=  2

POLgen: Polarization orbital for state 2p

   izeta = 1
                     rc =    6.790259
                 energy =    0.684082
                kinetic =    1.471481
    potential(screened) =   -0.787399
       potential(ionic) =   -2.406985
atom: Total number of Sankey-type orbitals: 13

atm_pop: Valence configuration (for local Pseudopot. screening):
 2s( 2.00)                                                            
 2p( 1.00)                                                            
Vna: chval, zval:    3.00000   3.00000

Vna:  Cut-off radius for the neutral-atom potential:   6.790259
comcore: Pseudo-core radius Rcore=  2.122997

atom: _________________________________________________________________________

<basis_specs>
===============================================================================
C                    Z=   6    Mass=  12.010        Charge= 0.17977+309
Lmxo=1 Lmxkb= 3    BasisType=split      Semic=F
L=0  Nsemic=0  Cnfigmx=2
          n=1  nzeta=2  polorb=0
            splnorm:   0.15000    
               vcte:    0.0000    
               rinn:    0.0000    
                rcs:    0.0000      0.0000    
            lambdas:    1.0000      1.0000    
L=1  Nsemic=0  Cnfigmx=2
          n=1  nzeta=2  polorb=1
            splnorm:   0.15000    
               vcte:    0.0000    
               rinn:    0.0000    
                rcs:    0.0000      0.0000    
            lambdas:    1.0000      1.0000    
-------------------------------------------------------------------------------
L=0  Nkbl=1  erefs: 0.17977+309
L=1  Nkbl=1  erefs: 0.17977+309
L=2  Nkbl=1  erefs: 0.17977+309
L=3  Nkbl=1  erefs: 0.17977+309
===============================================================================
</basis_specs>

atom: Called for C                     (Z =   6)

read_vps: Pseudopotential generation method:
read_vps: ATM3      Troullier-Martins                       
Total valence charge:    4.00000

read_vps: Pseudopotential includes a core correction:
read_vps: Pseudo-core for xc-correction

xc_check: Exchange-correlation functional:
xc_check: GGA Perdew, Burke & Ernzerhof 1996
V l=0 = -2*Zval/r beyond r=  1.5227
V l=1 = -2*Zval/r beyond r=  1.5227
V l=2 = -2*Zval/r beyond r=  1.5227
V l=3 = -2*Zval/r beyond r=  1.5038
All V_l potentials equal beyond r=  1.5227
This should be close to max(r_c) in ps generation
All pots = -2*Zval/r beyond r=  1.5227

VLOCAL1: 99.0% of the norm of Vloc inside     18.722 Ry
VLOCAL1: 99.9% of the norm of Vloc inside     42.668 Ry
atom: Maximum radius for 4*pi*r*r*local-pseudopot. charge    1.83678
atom: Maximum radius for r*vlocal+2*Zval:    1.58088
GHOST: No ghost state for L =  0
GHOST: No ghost state for L =  1
GHOST: No ghost state for L =  2
GHOST: No ghost state for L =  3

KBgen: Kleinman-Bylander projectors: 
   l= 0   rc=  1.704034   el= -1.009801   Ekb=  5.335044   kbcos=  0.316824
   l= 1   rc=  1.704034   el= -0.388707   Ekb= -3.785862   kbcos= -0.366464
   l= 2   rc=  1.791422   el=  0.001971   Ekb= -0.970471   kbcos= -0.009212
   l= 3   rc=  1.859892   el=  0.003065   Ekb= -0.399525   kbcos= -0.001223

KBgen: Total number of  Kleinman-Bylander projectors:   16
atom: -------------------------------------------------------------------------

atom: SANKEY-TYPE ORBITALS:
atom: Selected multiple-zeta basis: split     

SPLIT: Orbitals with angular momentum L= 0

SPLIT: Basis orbitals for state 2s

SPLIT: PAO cut-off radius determined from an
SPLIT: energy shift=  0.007350 Ry

   izeta = 1
                 lambda =    1.000000
                     rc =    4.632753
                 energy =   -1.002270
                kinetic =    0.855760
    potential(screened) =   -1.858031
       potential(ionic) =   -5.417575

   izeta = 2
                 rmatch =    3.431921
              splitnorm =    0.150000
                 energy =   -0.867111
                kinetic =    1.300804
    potential(screened) =   -2.167915
       potential(ionic) =   -5.962684

SPLIT: Orbitals with angular momentum L= 1

SPLIT: Basis orbitals for state 2p

SPLIT: PAO cut-off radius determined from an
SPLIT: energy shift=  0.007350 Ry

   izeta = 1
                 lambda =    1.000000
                     rc =    5.658549
                 energy =   -0.381140
                kinetic =    2.399701
    potential(screened) =   -2.780841
       potential(ionic) =   -6.206085

   izeta = 2
                 rmatch =    3.653288
              splitnorm =    0.150000
                 energy =   -0.249149
                kinetic =    3.542762
    potential(screened) =   -3.791911
       potential(ionic) =   -7.581078

POLgen: Perturbative polarization orbital with L=  2

POLgen: Polarization orbital for state 2p

   izeta = 1
                     rc =    5.658549
                 energy =    1.109913
                kinetic =    2.304789
    potential(screened) =   -1.194876
       potential(ionic) =   -4.013592
atom: Total number of Sankey-type orbitals: 13

atm_pop: Valence configuration (for local Pseudopot. screening):
 2s( 2.00)                                                            
 2p( 2.00)                                                            
Vna: chval, zval:    4.00000   4.00000

Vna:  Cut-off radius for the neutral-atom potential:   5.658549
comcore: Pseudo-core radius Rcore=  1.791422

atom: _________________________________________________________________________

prinput: Basis input ----------------------------------------------------------

PAO.BasisType split     

%block ChemicalSpeciesLabel
    1    5 B                       # Species index, atomic number, species label
    2    6 C                       # Species index, atomic number, species label
%endblock ChemicalSpeciesLabel

%block PAO.Basis                 # Define Basis set
B                     2                    # Species label, number of l-shells
 n=2   0   2                         # n, l, Nzeta 
   5.422      4.223   
   1.000      1.000   
 n=2   1   2 P   1                   # n, l, Nzeta, Polarization, NzetaPol
   6.790      4.609   
   1.000      1.000   
C                     2                    # Species label, number of l-shells
 n=2   0   2                         # n, l, Nzeta 
   4.633      3.432   
   1.000      1.000   
 n=2   1   2 P   1                   # n, l, Nzeta, Polarization, NzetaPol
   5.659      3.653   
   1.000      1.000   
%endblock PAO.Basis

prinput: ----------------------------------------------------------------------

coor:   Atomic-coordinates input format  =     Cartesian coordinates
coor:                                          (in Angstroms)

siesta: Atomic coordinates (Bohr) and species
siesta:      2.23554   1.32097   0.00000  1        1
siesta:     34.83141  22.82873   0.00000  1        2
siesta:     37.15930  18.79590   0.00000  1        3
siesta:     32.50278  10.73026   0.00000  1        4
siesta:      9.21981   2.66461   0.00000  1        5
siesta:     11.54782   1.32097   0.00000  1        6
siesta:     18.53210   2.66461   0.00000  1        7
siesta:     20.86199   1.32097   0.00000  1        8
siesta:     27.84627   2.66461   0.00000  1        9
siesta:      6.89193   6.69743   0.00000  1       10
siesta:     16.20421   6.69743   0.00000  1       11
siesta:     25.51838   6.69743   0.00000  1       12
siesta:      6.89205   9.38661   0.00000  1       13
siesta:     13.87633  10.73026   0.00000  1       14
siesta:     16.20434   9.38661   0.00000  1       15
siesta:     23.19050  10.73026   0.00000  1       16
siesta:     11.54845  14.76308   0.00000  1       17
siesta:     20.86262  14.76308   0.00000  1       18
siesta:     11.54857  17.45226   0.00000  1       19
siesta:     18.53284  18.79590   0.00000  1       20
siesta:     16.20496  22.82873   0.00000  1       21
siesta:     25.51851   9.38661   0.00000  1       22
siesta:     20.86274  17.45226   0.00000  1       23
siesta:     30.17490  14.76308   0.00000  1       24
siesta:     27.84702  18.79590   0.00000  1       25
siesta:     25.51913  22.82873   0.00000  1       26
siesta:     30.17503  17.45226   0.00000  1       27
siesta:      4.56367   2.66461   0.00000  2       28
siesta:     32.50328  21.48508   0.00000  2       29
siesta:     34.83116  17.45226   0.00000  2       30
siesta:     32.50291  13.41944   0.00000  2       31
siesta:     34.83104  14.76308   0.00000  2       32
siesta:     30.17465   9.38661   0.00000  2       33
siesta:     27.84639   5.35379   0.00000  2       34
siesta:     30.17453   6.69743   0.00000  2       35
siesta:     27.84714  21.48508   0.00000  2       36
siesta:     30.17527  22.82873   0.00000  2       37
siesta:      6.89168   1.32097   0.00000  2       38
siesta:     13.87595   2.66461   0.00000  2       39
siesta:     16.20396   1.32097   0.00000  2       40
siesta:     23.19013   2.66461   0.00000  2       41
siesta:     25.51813   1.32097   0.00000  2       42
siesta:      4.56380   5.35379   0.00000  2       43
siesta:      9.21994   5.35379   0.00000  2       44
siesta:     11.54807   6.69743   0.00000  2       45
siesta:     13.87608   5.35379   0.00000  2       46
siesta:     18.53411   5.35379   0.00000  2       47
siesta:     20.86224   6.69743   0.00000  2       48
siesta:     23.19025   5.35379   0.00000  2       49
siesta:      9.22019  10.73026   0.00000  2       50
siesta:     11.54820   9.38661   0.00000  2       51
siesta:     18.53247  10.73026   0.00000  2       52
siesta:     20.86237   9.38661   0.00000  2       53
siesta:      9.22031  13.41944   0.00000  2       54
siesta:     13.87645  13.41944   0.00000  2       55
siesta:     16.20459  14.76308   0.00000  2       56
siesta:     18.53448  13.41944   0.00000  2       57
siesta:     13.87670  18.79590   0.00000  2       58
siesta:     16.20471  17.45226   0.00000  2       59
siesta:     13.87683  21.48508   0.00000  2       60
siesta:     18.53486  21.48508   0.00000  2       61
siesta:     20.86299  22.82873   0.00000  2       62
siesta:     27.84664  10.73026   0.00000  2       63
siesta:     23.19063  13.41944   0.00000  2       64
siesta:     25.51876  14.76308   0.00000  2       65
siesta:     23.19088  18.79590   0.00000  2       66
siesta:     27.84677  13.41944   0.00000  2       67
siesta:     25.51888  17.45226   0.00000  2       68
siesta:     23.19100  21.48508   0.00000  2       69
siesta:     32.50316  18.79590   0.00000  2       70
siesta:     37.16131  21.48508   0.00000  2       71
siesta:     39.48945  22.82873   0.00000  2       72

siesta: System type = slab      

initatomlists: Number of atoms, orbitals, and projectors:     72   936  1152

siesta: ******************** Simulation parameters ****************************
siesta:
siesta: The following are some of the parameters of the simulation.
siesta: A complete list of the parameters used, including default values,
siesta: can be found in file out.fdf
siesta:
redata: Non-Collinear-spin run           =     F
redata: SpinPolarized (Up/Down) run      =     F
redata: Number of spin components        =     1
redata: Long output                      =     F
redata: Number of Atomic Species         =        2
redata: Charge density info will appear in .RHO file
redata: Write Mulliken Pop.              =     NO
redata: Mesh Cutoff                      =   200.0000  Ry
redata: Net charge of the system         =     0.0000 |e|
redata: Max. number of SCF Iter          =      500
redata: SCF convergence failure will abort job
redata: Performing Pulay mixing using    =    10 iterations
redata: Mix DM in first SCF step ?       =     F
redata: Write Pulay info on disk?        =     F
redata: Discard 1st Pulay DM after  kick =     F
redata: New DM Mixing Weight             =     0.0500
redata: New DM Occupancy tolerance       = 0.000000000001
redata: No kicks to SCF
redata: DM Mixing Weight for Kicks       =     0.5000
redata: DM Tolerance for SCF             =     0.000100
redata: Require Energy convergence for SCF =     F
redata: DM Energy tolerance for SCF      =     0.000100 eV
redata: Require Harris convergence for SCF =     F
redata: DM Harris energy tolerance for SCF =     0.000100 eV
redata: Using Saved Data (generic)   =     F
redata: Use continuation files for DM    =     T
redata: Neglect nonoverlap interactions  =     F
redata: Method of Calculation            =     Diagonalization
redata: Divide and Conquer               =     T
redata: Electronic Temperature           =     0.0019  Ry
redata: Fix the spin of the system       =     F
redata: Dynamics option                  =     Verlet MD run
redata: Initial MD time step             =        1
redata:   Final MD time step             =        1
redata: Length of MD time step           =     1.0000  fs
redata: Initial Temperature of MD run    =     0.0000  K
redata: Perform a MD quench              =     F
redata: ***********************************************************************
Total number of electrons:   261.000000
Total ionic charge:   261.000000

* ProcessorY, Blocksize:    2  24

k-point displ. along   1 input, could be:     0.00    0.50
k-point displ. along   2 input, could be:     0.00    0.50
 Kpoints in:          364 . Kpoints trimmed:          352

siesta: k-grid: Number of k-points =   352
siesta: k-grid: Cutoff (effective) =     5.000 Ang
siesta: k-grid: Supercell and displacements
siesta: k-grid:   26   0   0      0.000
siesta: k-grid:    0  26   0      0.000
siesta: k-grid:    0   0   1      0.000
Naive supercell factors:     2    2    2

superc: Internal auxiliary supercell:     2 x     2 x     2  =       8
superc: Number of atoms, orbitals, and projectors:    576   7488   9216

* Maximum dynamic memory allocated =     6 MB

siesta:                 ==============================
                            Begin MD step =      1
                        ==============================

superc: Internal auxiliary supercell:     2 x     2 x     2  =       8
superc: Number of atoms, orbitals, and projectors:    576   7488   9216

outcell: Unit cell vectors (Ang):
       14.785000    0.000000    0.000000
        7.393000   12.805052    0.000000
        0.000000    0.000000   10.000000

outcell: Cell vector modules (Ang)   :   14.785000   14.786000   10.000000
outcell: Cell angles (23,13,12) (deg):     90.0000     90.0000     60.0000
outcell: Cell volume (Ang**3)        :   1893.2269
New_DM. Step:     1
Initializing Density Matrix...

InitMesh: MESH =   120 x   120 x    90 =     1296000
InitMesh: Mesh cutoff (required, used) =   200.000   223.865 Ry

* Maximum dynamic memory allocated =   231 MB

stepf: Fermi-Dirac step function

siesta: Program's energy decomposition (eV):
siesta: Ebs     =     -4177.775804
siesta: Eions   =     14945.479869
siesta: Ena     =      3358.760835
siesta: Ekin    =      4954.252969
siesta: Enl     =       455.639422
siesta: DEna    =        -0.000005
siesta: DUscf   =         0.000000
siesta: DUext   =         0.000000
siesta: Exc     =     -4005.812322
siesta: eta*DQ  =         0.000000
siesta: Emadel  =         0.000000
siesta: Emeta   =         0.000000
siesta: Emolmec =         0.000000
siesta: Ekinion =         0.000000
siesta: Eharris =    -10086.216625
siesta: Etot    =    -10182.638969
siesta: FreeEng =    -10182.638969

siesta: iscf   Eharris(eV)      E_KS(eV)   FreeEng(eV)   dDmax  Ef(eV)
siesta:    1   -10086.2166   -10182.6390   -10182.6390  1.8886 -9.3067
timer: Routine,Calls,Time,% = IterSCF        1    8530.730  99.86
elaps: Routine,Calls,Wall,% = IterSCF        1    1068.158  99.86
siesta:    2   -10126.2822    -9997.5874    -9997.6255  1.1045 -3.5658
siesta:    3   -10050.1297   -10094.5774   -10094.6085  0.8243 -6.1332
siesta:    4   -10055.8204   -10085.7165   -10085.7522  0.7547 -5.8103
siesta:    5   -10047.7560   -10077.2113   -10077.2511  0.5985 -5.8021
siesta:    6   -10043.9892   -10052.6749   -10052.7119  0.1808 -5.9326
siesta:    7   -10043.9485   -10052.5739   -10052.6116  0.1786 -5.9382
siesta:    8   -10041.7269   -10041.6842   -10041.7219  0.0195 -6.1738
siesta:    9   -10041.6111   -10041.9302   -10041.9758  0.0239 -6.1835
siesta:   10   -10041.5007   -10041.6716   -10041.7195  0.0135 -6.1700
siesta:   11   -10041.4683   -10041.4057   -10041.4530  0.0116 -6.1705
siesta:   12   -10040.9887   -10041.3184   -10041.3655  0.0054 -6.1608
siesta:   13   -10041.4708   -10041.3038   -10041.3508  0.0054 -6.1606
siesta:   14   -10041.4670   -10041.1725   -10041.2194  0.0041 -6.1611
siesta:   15   -10041.4664   -10041.2383   -10041.2853  0.0024 -6.1625
siesta:   16   -10041.4664   -10041.2311   -10041.2782  0.0025 -6.1625
siesta:   17   -10041.4664   -10041.4082   -10041.4553  0.0004 -6.1611
siesta:   18   -10041.4664   -10041.4522   -10041.4993  0.0002 -6.1613
siesta:   19   -10041.4664   -10041.4794   -10041.5265  0.0002 -6.1614
siesta:   20   -10041.4663   -10041.4758   -10041.5228  0.0001 -6.1614
siesta:   21   -10041.4663   -10041.4647   -10041.5118  0.0001 -6.1613

siesta: E_KS(eV) =           -10041.4635

siesta: E_KS - E_eggbox =    -10041.4635

siesta: Atomic forces (eV/Ang):
----------------------------------------
   Tot    0.367397   -0.131559    0.000000
----------------------------------------
   Max    5.541909
   Res    2.468279    sqrt( Sum f_i^2 / 3N )
----------------------------------------
   Max    5.541909    constrained

Stress-tensor-Voigt (kbar):     -274.16     -241.05       -0.72      -28.54        0.00        0.00
(Free)E + p*V (eV/cell)    -9838.2949
Target enthalpy (eV/cell)   -10041.5106

siesta: Stress tensor (static) (eV/Ang**3):
        -0.171117   -0.017812    0.000000
        -0.017812   -0.150450    0.000000
         0.000000    0.000000   -0.000447

siesta: Pressure (static):        171.97666479  kBar

siesta: Stress tensor (total) (eV/Ang**3):
        -0.171117   -0.017812    0.000000
        -0.017812   -0.150450    0.000000
         0.000000    0.000000   -0.000447

siesta: Pressure (total):        171.97666479  kBar

siesta: Temp_ion =       0.000 K

* Maximum dynamic memory allocated =   246 MB

siesta: Program's energy decomposition (eV):
siesta: Ebs     =     -3330.531659
siesta: Eions   =     14945.479869
siesta: Ena     =      3358.760835
siesta: Ekin    =      6482.073092
siesta: Enl     =      -472.982831
siesta: DEna    =      -385.091066
siesta: DUscf   =        43.162871
siesta: DUext   =         0.000000
siesta: Exc     =     -4121.906506
siesta: eta*DQ  =         0.000000
siesta: Emadel  =         0.000000
siesta: Emeta   =         0.000000
siesta: Emolmec =         0.000000
siesta: Ekinion =         0.000000
siesta: Eharris =    -10041.466331
siesta: Etot    =    -10041.463474
siesta: FreeEng =    -10041.510555

siesta: Final energy (eV):
siesta:  Band Struct. =   -3330.531659
siesta:       Kinetic =    6482.073092
siesta:       Hartree =   18831.526120
siesta:    Ext. field =       0.000000
siesta:   Exch.-corr. =   -4121.906506
siesta:  Ion-electron =  -43511.738862
siesta:       Ion-ion =   12278.582683
siesta:       Ekinion =       0.000000
siesta:         Total =  -10041.463474

siesta: Atomic forces (eV/Ang):
siesta:      1    5.523420    3.167293    0.000000
siesta:      2   -0.879694   -5.236465    0.000000
siesta:      3   -4.988228    1.842366    0.000000
siesta:      4   -4.985920    1.840080    0.000000
siesta:      5   -5.002170    1.846009    0.000000
siesta:      6    5.525851    3.159540    0.000000
siesta:      7   -4.972647    1.826611    0.000000
siesta:      8    5.508845    3.179978    0.000000
siesta:      9   -4.988483    1.834852    0.000000
siesta:     10   -0.902717   -5.248700    0.000000
siesta:     11   -0.872930   -5.264557    0.000000
siesta:     12   -0.899801   -5.248856    0.000000
siesta:     13    5.514964    3.195912    0.000000
siesta:     14   -5.001866    1.849173    0.000000
siesta:     15    5.541909    3.185641    0.000000
siesta:     16   -5.007362    1.850025    0.000000
siesta:     17   -0.904514   -5.247219    0.000000
siesta:     18   -0.909150   -5.249285    0.000000
siesta:     19    5.518521    3.198395    0.000000
siesta:     20   -4.969873    1.830590    0.000000
siesta:     21   -0.874608   -5.236600    0.000000
siesta:     22    5.530621    3.186295    0.000000
siesta:     23    5.502742    3.208934    0.000000
siesta:     24   -0.901015   -5.248546    0.000000
siesta:     25   -5.001741    1.849286    0.000000
siesta:     26   -0.894891   -5.222125    0.000000
siesta:     27    5.531647    3.186289    0.000000
siesta:     28    2.279914    1.312307    0.000000
siesta:     29   -2.339899   -1.819344    0.000000
siesta:     30   -2.739737   -1.136287    0.000000
siesta:     31    4.178025    2.396843    0.000000
siesta:     32   -0.945579   -0.559190    0.000000
siesta:     33   -2.741350   -1.138383    0.000000
siesta:     34    4.178333    2.396817    0.000000
siesta:     35   -0.946794   -0.559896    0.000000
siesta:     36    4.173834    2.399481    0.000000
siesta:     37   -0.962742   -0.535218    0.000000
siesta:     38   -2.739457   -1.155446    0.000000
siesta:     39    2.286267    1.310320    0.000000
siesta:     40   -2.736179   -1.154543    0.000000
siesta:     41    2.277305    1.311728    0.000000
siesta:     42   -2.738377   -1.154793    0.000000
siesta:     43   -2.357681   -1.818330    0.000000
siesta:     44    4.173704    2.398322    0.000000
siesta:     45   -0.958493   -0.555042    0.000000
siesta:     46   -2.340879   -1.824262    0.000000
siesta:     47    4.148559    2.409617    0.000000
siesta:     48   -0.966828   -0.553015    0.000000
siesta:     49   -2.342532   -1.824984    0.000000
siesta:     50    2.282981    1.317603    0.000000
siesta:     51   -2.742920   -1.136468    0.000000
siesta:     52    2.314077    1.309410    0.000000
siesta:     53   -2.768002   -1.129278    0.000000
siesta:     54   -2.358224   -1.818882    0.000000
siesta:     55    4.180141    2.397277    0.000000
siesta:     56   -0.933523   -0.561135    0.000000
siesta:     57   -2.379001   -1.818268    0.000000
siesta:     58    2.279272    1.315610    0.000000
siesta:     59   -2.737281   -1.138325    0.000000
siesta:     60   -2.324172   -1.826793    0.000000
siesta:     61    4.151578    2.413860    0.000000
siesta:     62   -0.968394   -0.536353    0.000000
siesta:     63    2.284751    1.316530    0.000000
siesta:     64    4.175966    2.397973    0.000000
siesta:     65   -0.959499   -0.554996    0.000000
siesta:     66    2.279861    1.316551    0.000000
siesta:     67   -2.346071   -1.823876    0.000000
siesta:     68   -2.743610   -1.136033    0.000000
siesta:     69   -2.346670   -1.819608    0.000000
siesta:     70    2.282315    1.316425    0.000000
siesta:     71    4.147771    2.414884    0.000000
siesta:     72   -0.984265   -0.529282    0.000000
siesta: ----------------------------------------
siesta:    Tot    0.367397   -0.131559    0.000000

siesta: Stress tensor (static) (eV/Ang**3):
siesta:    -0.171117   -0.017812    0.000000
siesta:    -0.017812   -0.150450    0.000000
siesta:     0.000000    0.000000   -0.000447

siesta: Cell volume =       1893.226895 Ang**3

siesta: Pressure (static):
siesta:                Solid            Molecule  Units
siesta:           0.00116905          0.00168200  Ry/Bohr**3
siesta:           0.10733823          0.15443575  eV/Ang**3
siesta:         171.97666479        247.43601688  kBar
(Free)E+ p_basis*V_orbitals  =      -10002.242196
(Free)Eharris+ p_basis*V_orbitals  =      -10002.243851

siesta: Electric dipole (a.u.)  =    0.000000    0.000000    0.000000
siesta: Electric dipole (Debye) =    0.000000    0.000000    0.000000

* Maximum dynamic memory allocated : Node    0 =   245 MB
* Maximum dynamic memory allocated : Node    1 =    88 MB
* Maximum dynamic memory allocated : Node    2 =    92 MB
* Maximum dynamic memory allocated : Node    3 =   231 MB
* Maximum dynamic memory allocated : Node    4 =   246 MB
* Maximum dynamic memory allocated : Node    5 =    88 MB
* Maximum dynamic memory allocated : Node    6 =    91 MB
* Maximum dynamic memory allocated : Node    7 =   226 MB

* Maximum memory occured during matrixMtoO                    

timer: CPU execution times:
timer:  Routine       Calls   Time/call    Tot.time        %
timer:  siesta            1  179175.568  179175.568   100.00
timer:  Setup             1       3.097       3.097     0.00
timer:  bands             1       0.009       0.009     0.00
timer:  writewave         1       0.017       0.017     0.00
timer:  KSV_init          1       0.000       0.000     0.00
timer:  IterMD            1  179164.323  179164.323    99.99
timer:  hsparse           1       0.405       0.405     0.00
timer:  overlap           1       7.805       7.805     0.00
timer:  IterSCF          21    8520.157  178923.305    99.86
timer:  kinefsm           2       4.080       8.160     0.00
timer:  nlefsm            2      22.135      44.271     0.02
timer:  DHSCF            22     133.860    2944.931     1.64
timer:  DHSCF1            1       1.030       1.030     0.00
timer:  DHSCF2            1      46.878      46.878     0.03
timer:  REORD           178       0.014       2.491     0.00
timer:  POISON           23       3.677      84.571     0.05
timer:  DHSCF3           22     129.560    2850.331     1.59
timer:  rhoofd           22      25.394     558.675     0.31
timer:  cellXC           22       3.529      77.631     0.04
timer:  vmat             22      68.276    1502.063     0.84
timer:  MolMec            2       0.000       0.000     0.00
timer:  diagon           21    8385.138  176087.904    98.28
timer:  c-eigval       7392       7.215   53332.363    29.77
timer:  c-buildHS      7392       0.221    1630.917     0.91
timer:  cdiag         14784       7.407  109507.794    61.12
timer:  cdiag1        14784       0.462    6830.486     3.81
timer:  cdiag2        14784       1.980   29265.817    16.33
timer:  cdiag3        14784       4.149   61335.592    34.23
timer:  cdiag4        14784       0.272    4016.674     2.24
timer:  c-eigvec       7392       7.907   58447.084    32.62
timer:  c-buildD       7392       8.688   64223.375    35.84
timer:  DHSCF4            1      44.770      44.770     0.02
timer:  dfscf             1      42.043      42.043     0.02
timer:  overfsm           1       0.488       0.488     0.00
timer:  optical           1       7.131       7.131     0.00
  

elaps: ELAPSED times:
elaps:  Routine       Calls   Time/call    Tot.time        %
elaps:  siesta            1   22434.983   22434.983   100.00
elaps:  Setup             1       0.387       0.387     0.00
elaps:  bands             1       0.001       0.001     0.00
elaps:  writewave         1       0.002       0.002     0.00
elaps:  KSV_init          1       0.000       0.000     0.00
elaps:  IterMD            1   22433.577   22433.577    99.99
elaps:  hsparse           1       0.049       0.049     0.00
elaps:  overlap           1       0.981       0.981     0.00
elaps:  IterSCF          21    1066.830   22403.423    99.86
elaps:  kinefsm           2       0.508       1.017     0.00
elaps:  nlefsm            2       2.839       5.678     0.03
elaps:  DHSCF            22      16.939     372.656     1.66
elaps:  DHSCF1            1       0.133       0.133     0.00
elaps:  DHSCF2            1       5.865       5.865     0.03
elaps:  REORD           178       0.002       0.322     0.00
elaps:  POISON           23       0.462      10.631     0.05
elaps:  DHSCF3           22      16.209     356.608     1.59
elaps:  rhoofd           22       5.345     117.598     0.52
elaps:  cellXC           22       0.440       9.684     0.04
elaps:  vmat             22       8.542     187.921     0.84
elaps:  MolMec            2       0.000       0.000     0.00
elaps:  diagon           21    1049.968   22049.332    98.28
elaps:  c-eigval       7392       0.903    6673.557    29.75
elaps:  c-buildHS      7392       0.029     215.166     0.96
elaps:  cdiag         14784       0.909   13432.445    59.87
elaps:  cdiag1        14784       0.057     845.196     3.77
elaps:  cdiag2        14784       0.248    3661.609    16.32
elaps:  cdiag3        14784       0.520    7686.356    34.26
elaps:  cdiag4        14784       0.035     517.606     2.31
elaps:  c-eigvec       7392       0.956    7070.184    31.51
elaps:  c-buildD       7392       1.122    8293.977    36.97
elaps:  DHSCF4            1       9.781       9.781     0.04
elaps:  dfscf             1       9.259       9.259     0.04
elaps:  overfsm           1       0.062       0.062     0.00
elaps:  optical           1       0.000       0.000     0.00
  
>> End of run:   5-DEC-2015   2:21:00
