Siesta Version:                                        siesta-3.2-pl-3
Architecture  : x86_64-unknown-linux-gnu--unknown
Compiler flags: mpiifort -g -O2 -fPIC -xSSE4.1 -fp-model source -shared-intel 
PARALLEL version

* Running on    8 nodes in parallel
>> Start of run:   1-DEC-2015   2:11:46

                           ***********************       
                           *  WELCOME TO SIESTA  *       
                           ***********************       

reinit: Reading from standard input
************************** Dump of input data file ****************************
#(1) General system descriptors
SystemName            GRP_doping    # Descriptive name of the system
SystemLabel           GRP_doping    # Short name for naming files
%include STRUCT.fdf
%include KPT.fdf
%include BASIS.fdf
#%include TS.fdf # for transiesta calculation
#(4) DFT, Grid, SCF
XC.functional         GGA           # LDA or GGA (default = LDA)
XC.authors            PBE           # CA (Ceperley-Aldr) = PZ
                                    #    (Perdew-Zunger) - LDA - Default
                                    # PW92 (Perdew-Wang-92) - LDA
                                    # PBE (Perdew-Burke-Ernzerhof) - GGA
MeshCutoff            200.000000    Ry      # Default: 50.0 Ry ~ 0.444 Bohr
                                    #         100.0 Ry ~ 0.314 Bohr
MaxSCFIterations      500           # Default: 50
DM.MixingWeight       0.05          # Default: 0.25
DM.NumberPulay        10            # Default: 0
DM.PulayOnFile        F             # SystemLabel.P1, SystemLabel.P2
DM.Tolerance          1.d-4         # Default: 1.d-4
DM.UseSaveDM          .true.        # because of the bug
SCFMustConverge       .true.
NeglNonOverlapInt     F             # Default: F
#(5) Eigenvalue problem: order-N or diagonalization
SolutionMethod        Diagon        # or Transiesta
ElectronicTemperature 300.0 K       # Default: 300.0 K
#(6) Molecular dynamics and relaxations
#MD.TypeOfRun          CG            # Type of dynamics:
#MD.VariableCell       F
#MD.NumCGsteps         0           # 0 for single-point / 100 for gopt
#MD.MaxCGDispl         0.2 Bohr      # Default: 0.2 Bohr
#MD.MaxForceTol        0.02 eV/Ang   # Default: 0.04 eV/Ang
#MD.MaxStressTol       1.0 GPa       # Default: 1.0 GPa
# Geometry Constraints
#%block GeometryConstraints
#	position from 1 to 44
#%endblock GeometryConstraints
************************** End of input data file *****************************

reinit: -----------------------------------------------------------------------
reinit: System Name: GRP_doping
reinit: -----------------------------------------------------------------------
reinit: System Label: GRP_doping                                                  
reinit: -----------------------------------------------------------------------

initatom: Reading input for the pseudopotentials and atomic orbitals ----------
 Species number:            1  Label: C Atomic number:           6
 Species number:            2  Label: N Atomic number:           7
Ground state valence configuration:   2s02  2p02
Reading pseudopotential information in formatted form from C.psf

Valence configuration for pseudopotential generation:
2s( 2.00) rc: 1.54
2p( 2.00) rc: 1.54
3d( 0.00) rc: 1.54
4f( 0.00) rc: 1.54
Ground state valence configuration:   2s02  2p03
Reading pseudopotential information in formatted form from N.psf

Valence configuration for pseudopotential generation:
2s( 2.00) rc: 1.48
2p( 3.00) rc: 1.48
3d( 0.00) rc: 1.48
4f( 0.00) rc: 1.48
For C, standard SIESTA heuristics set lmxkb to 3
 (one more than the basis l, including polarization orbitals).
Use PS.lmax or PS.KBprojectors blocks to override.
For N, standard SIESTA heuristics set lmxkb to 3
 (one more than the basis l, including polarization orbitals).
Use PS.lmax or PS.KBprojectors blocks to override.

<basis_specs>
===============================================================================
C                    Z=   6    Mass=  12.010        Charge= 0.17977+309
Lmxo=1 Lmxkb= 3    BasisType=split      Semic=F
L=0  Nsemic=0  Cnfigmx=2
          n=1  nzeta=2  polorb=0
            splnorm:   0.15000    
               vcte:    0.0000    
               rinn:    0.0000    
                rcs:    0.0000      0.0000    
            lambdas:    1.0000      1.0000    
L=1  Nsemic=0  Cnfigmx=2
          n=1  nzeta=2  polorb=1
            splnorm:   0.15000    
               vcte:    0.0000    
               rinn:    0.0000    
                rcs:    0.0000      0.0000    
            lambdas:    1.0000      1.0000    
-------------------------------------------------------------------------------
L=0  Nkbl=1  erefs: 0.17977+309
L=1  Nkbl=1  erefs: 0.17977+309
L=2  Nkbl=1  erefs: 0.17977+309
L=3  Nkbl=1  erefs: 0.17977+309
===============================================================================
</basis_specs>

atom: Called for C                     (Z =   6)

read_vps: Pseudopotential generation method:
read_vps: ATM3      Troullier-Martins                       
Total valence charge:    4.00000

read_vps: Pseudopotential includes a core correction:
read_vps: Pseudo-core for xc-correction

xc_check: Exchange-correlation functional:
xc_check: GGA Perdew, Burke & Ernzerhof 1996
V l=0 = -2*Zval/r beyond r=  1.5227
V l=1 = -2*Zval/r beyond r=  1.5227
V l=2 = -2*Zval/r beyond r=  1.5227
V l=3 = -2*Zval/r beyond r=  1.5038
All V_l potentials equal beyond r=  1.5227
This should be close to max(r_c) in ps generation
All pots = -2*Zval/r beyond r=  1.5227

VLOCAL1: 99.0% of the norm of Vloc inside     18.722 Ry
VLOCAL1: 99.9% of the norm of Vloc inside     42.668 Ry
atom: Maximum radius for 4*pi*r*r*local-pseudopot. charge    1.83678
atom: Maximum radius for r*vlocal+2*Zval:    1.58088
GHOST: No ghost state for L =  0
GHOST: No ghost state for L =  1
GHOST: No ghost state for L =  2
GHOST: No ghost state for L =  3

KBgen: Kleinman-Bylander projectors: 
   l= 0   rc=  1.704034   el= -1.009801   Ekb=  5.335044   kbcos=  0.316824
   l= 1   rc=  1.704034   el= -0.388707   Ekb= -3.785862   kbcos= -0.366464
   l= 2   rc=  1.791422   el=  0.001971   Ekb= -0.970471   kbcos= -0.009212
   l= 3   rc=  1.859892   el=  0.003065   Ekb= -0.399525   kbcos= -0.001223

KBgen: Total number of  Kleinman-Bylander projectors:   16
atom: -------------------------------------------------------------------------

atom: SANKEY-TYPE ORBITALS:
atom: Selected multiple-zeta basis: split     

SPLIT: Orbitals with angular momentum L= 0

SPLIT: Basis orbitals for state 2s

SPLIT: PAO cut-off radius determined from an
SPLIT: energy shift=  0.007350 Ry

   izeta = 1
                 lambda =    1.000000
                     rc =    4.632753
                 energy =   -1.002270
                kinetic =    0.855760
    potential(screened) =   -1.858031
       potential(ionic) =   -5.417575

   izeta = 2
                 rmatch =    3.431921
              splitnorm =    0.150000
                 energy =   -0.867111
                kinetic =    1.300804
    potential(screened) =   -2.167915
       potential(ionic) =   -5.962684

SPLIT: Orbitals with angular momentum L= 1

SPLIT: Basis orbitals for state 2p

SPLIT: PAO cut-off radius determined from an
SPLIT: energy shift=  0.007350 Ry

   izeta = 1
                 lambda =    1.000000
                     rc =    5.658549
                 energy =   -0.381140
                kinetic =    2.399701
    potential(screened) =   -2.780841
       potential(ionic) =   -6.206085

   izeta = 2
                 rmatch =    3.653288
              splitnorm =    0.150000
                 energy =   -0.249149
                kinetic =    3.542762
    potential(screened) =   -3.791911
       potential(ionic) =   -7.581078

POLgen: Perturbative polarization orbital with L=  2

POLgen: Polarization orbital for state 2p

   izeta = 1
                     rc =    5.658549
                 energy =    1.109913
                kinetic =    2.304789
    potential(screened) =   -1.194876
       potential(ionic) =   -4.013592
atom: Total number of Sankey-type orbitals: 13

atm_pop: Valence configuration (for local Pseudopot. screening):
 2s( 2.00)                                                            
 2p( 2.00)                                                            
Vna: chval, zval:    4.00000   4.00000

Vna:  Cut-off radius for the neutral-atom potential:   5.658549
comcore: Pseudo-core radius Rcore=  1.791422

atom: _________________________________________________________________________

<basis_specs>
===============================================================================
N                    Z=   7    Mass=  14.010        Charge= 0.17977+309
Lmxo=1 Lmxkb= 3    BasisType=split      Semic=F
L=0  Nsemic=0  Cnfigmx=2
          n=1  nzeta=2  polorb=0
            splnorm:   0.15000    
               vcte:    0.0000    
               rinn:    0.0000    
                rcs:    0.0000      0.0000    
            lambdas:    1.0000      1.0000    
L=1  Nsemic=0  Cnfigmx=2
          n=1  nzeta=2  polorb=1
            splnorm:   0.15000    
               vcte:    0.0000    
               rinn:    0.0000    
                rcs:    0.0000      0.0000    
            lambdas:    1.0000      1.0000    
-------------------------------------------------------------------------------
L=0  Nkbl=1  erefs: 0.17977+309
L=1  Nkbl=1  erefs: 0.17977+309
L=2  Nkbl=1  erefs: 0.17977+309
L=3  Nkbl=1  erefs: 0.17977+309
===============================================================================
</basis_specs>

atom: Called for N                     (Z =   7)

read_vps: Pseudopotential generation method:
read_vps: ATM3      Troullier-Martins                       
Total valence charge:    5.00000

read_vps: Pseudopotential includes a core correction:
read_vps: Pseudo-core for xc-correction

xc_check: Exchange-correlation functional:
xc_check: GGA Perdew, Burke & Ernzerhof 1996
V l=0 = -2*Zval/r beyond r=  1.4606
V l=1 = -2*Zval/r beyond r=  1.4606
V l=2 = -2*Zval/r beyond r=  1.4606
V l=3 = -2*Zval/r beyond r=  1.4606
All V_l potentials equal beyond r=  1.4606
This should be close to max(r_c) in ps generation
All pots = -2*Zval/r beyond r=  1.4606

VLOCAL1: 99.0% of the norm of Vloc inside     20.347 Ry
VLOCAL1: 99.9% of the norm of Vloc inside     46.372 Ry
atom: Maximum radius for 4*pi*r*r*local-pseudopot. charge    1.76189
atom: Maximum radius for r*vlocal+2*Zval:    1.53550
GHOST: No ghost state for L =  0
GHOST: No ghost state for L =  1
GHOST: No ghost state for L =  2
GHOST: No ghost state for L =  3

KBgen: Kleinman-Bylander projectors: 
   l= 0   rc=  1.634559   el= -1.363963   Ekb=  5.296955   kbcos=  0.335621
   l= 1   rc=  1.614250   el= -0.521451   Ekb= -5.259161   kbcos= -0.433408
   l= 2   rc=  1.718383   el=  0.001991   Ekb= -1.271464   kbcos= -0.007566
   l= 3   rc=  1.761893   el=  0.003093   Ekb= -0.494769   kbcos= -0.001015

KBgen: Total number of  Kleinman-Bylander projectors:   16
atom: -------------------------------------------------------------------------

atom: SANKEY-TYPE ORBITALS:
atom: Selected multiple-zeta basis: split     

SPLIT: Orbitals with angular momentum L= 0

SPLIT: Basis orbitals for state 2s

SPLIT: PAO cut-off radius determined from an
SPLIT: energy shift=  0.007350 Ry

   izeta = 1
                 lambda =    1.000000
                     rc =    4.071465
                 energy =   -1.356470
                kinetic =    1.176977
    potential(screened) =   -2.533447
       potential(ionic) =   -8.057990

   izeta = 2
                 rmatch =    2.905100
              splitnorm =    0.150000
                 energy =   -1.158343
                kinetic =    1.813009
    potential(screened) =   -2.971352
       potential(ionic) =   -8.901931

SPLIT: Orbitals with angular momentum L= 1

SPLIT: Basis orbitals for state 2p

SPLIT: PAO cut-off radius determined from an
SPLIT: energy shift=  0.007350 Ry

   izeta = 1
                 lambda =    1.000000
                     rc =    4.972977
                 energy =   -0.513884
                kinetic =    3.441732
    potential(screened) =   -3.955616
       potential(ionic) =   -9.287901

   izeta = 2
                 rmatch =    3.054066
              splitnorm =    0.150000
                 energy =   -0.318226
                kinetic =    5.125348
    potential(screened) =   -5.443573
       potential(ionic) =  -11.380999

POLgen: Perturbative polarization orbital with L=  2

POLgen: Polarization orbital for state 2p

   izeta = 1
                     rc =    4.972977
                 energy =    1.607437
                kinetic =    3.268125
    potential(screened) =   -1.660688
       potential(ionic) =   -5.973652
atom: Total number of Sankey-type orbitals: 13

atm_pop: Valence configuration (for local Pseudopot. screening):
 2s( 2.00)                                                            
 2p( 3.00)                                                            
Vna: chval, zval:    5.00000   5.00000

Vna:  Cut-off radius for the neutral-atom potential:   4.972977
comcore: Pseudo-core radius Rcore=  1.554824

atom: _________________________________________________________________________

prinput: Basis input ----------------------------------------------------------

PAO.BasisType split     

%block ChemicalSpeciesLabel
    1    6 C                       # Species index, atomic number, species label
    2    7 N                       # Species index, atomic number, species label
%endblock ChemicalSpeciesLabel

%block PAO.Basis                 # Define Basis set
C                     2                    # Species label, number of l-shells
 n=2   0   2                         # n, l, Nzeta 
   4.633      3.432   
   1.000      1.000   
 n=2   1   2 P   1                   # n, l, Nzeta, Polarization, NzetaPol
   5.659      3.653   
   1.000      1.000   
N                     2                    # Species label, number of l-shells
 n=2   0   2                         # n, l, Nzeta 
   4.071      2.905   
   1.000      1.000   
 n=2   1   2 P   1                   # n, l, Nzeta, Polarization, NzetaPol
   4.973      3.054   
   1.000      1.000   
%endblock PAO.Basis

prinput: ----------------------------------------------------------------------

coor:   Atomic-coordinates input format  =     Cartesian coordinates
coor:                                          (in Angstroms)

siesta: Atomic coordinates (Bohr) and species
siesta:      2.23554   1.32097   0.00000  1        1
siesta:      4.56367   2.66461   0.00000  1        2
siesta:     32.50328  21.48508   0.00000  1        3
siesta:     34.83141  22.82873   0.00000  1        4
siesta:     34.83116  17.45226   0.00000  1        5
siesta:     32.50291  13.41944   0.00000  1        6
siesta:     34.83104  14.76308   0.00000  1        7
siesta:     30.17465   9.38661   0.00000  1        8
siesta:     32.50278  10.73026   0.00000  1        9
siesta:     27.84639   5.35379   0.00000  1       10
siesta:     30.17453   6.69743   0.00000  1       11
siesta:     27.84714  21.48508   0.00000  1       12
siesta:     30.17527  22.82873   0.00000  1       13
siesta:      6.89168   1.32097   0.00000  1       14
siesta:      9.21981   2.66461   0.00000  1       15
siesta:     13.87595   2.66461   0.00000  1       16
siesta:     16.20396   1.32097   0.00000  1       17
siesta:     18.53210   2.66461   0.00000  1       18
siesta:     23.19013   2.66461   0.00000  1       19
siesta:     25.51813   1.32097   0.00000  1       20
siesta:     27.84627   2.66461   0.00000  1       21
siesta:      6.89193   6.69743   0.00000  1       22
siesta:      9.21994   5.35379   0.00000  1       23
siesta:     11.54807   6.69743   0.00000  1       24
siesta:     13.87608   5.35379   0.00000  1       25
siesta:     16.20421   6.69743   0.00000  1       26
siesta:     18.53411   5.35379   0.00000  1       27
siesta:     20.86224   6.69743   0.00000  1       28
siesta:     23.19025   5.35379   0.00000  1       29
siesta:     25.51838   6.69743   0.00000  1       30
siesta:      9.22019  10.73026   0.00000  1       31
siesta:     11.54820   9.38661   0.00000  1       32
siesta:     13.87633  10.73026   0.00000  1       33
siesta:     18.53247  10.73026   0.00000  1       34
siesta:     20.86237   9.38661   0.00000  1       35
siesta:     23.19050  10.73026   0.00000  1       36
siesta:      9.22031  13.41944   0.00000  1       37
siesta:     11.54845  14.76308   0.00000  1       38
siesta:     13.87645  13.41944   0.00000  1       39
siesta:     16.20459  14.76308   0.00000  1       40
siesta:     18.53448  13.41944   0.00000  1       41
siesta:     20.86262  14.76308   0.00000  1       42
siesta:     13.87670  18.79590   0.00000  1       43
siesta:     16.20471  17.45226   0.00000  1       44
siesta:     18.53284  18.79590   0.00000  1       45
siesta:     13.87683  21.48508   0.00000  1       46
siesta:     16.20496  22.82873   0.00000  1       47
siesta:     18.53486  21.48508   0.00000  1       48
siesta:     20.86299  22.82873   0.00000  1       49
siesta:     27.84664  10.73026   0.00000  1       50
siesta:     23.19063  13.41944   0.00000  1       51
siesta:     25.51876  14.76308   0.00000  1       52
siesta:     23.19088  18.79590   0.00000  1       53
siesta:     27.84677  13.41944   0.00000  1       54
siesta:     30.17490  14.76308   0.00000  1       55
siesta:     25.51888  17.45226   0.00000  1       56
siesta:     27.84702  18.79590   0.00000  1       57
siesta:     23.19100  21.48508   0.00000  1       58
siesta:     25.51913  22.82873   0.00000  1       59
siesta:     30.17503  17.45226   0.00000  1       60
siesta:     32.50316  18.79590   0.00000  1       61
siesta:     37.16131  21.48508   0.00000  1       62
siesta:     39.48945  22.82873   0.00000  1       63
siesta:     37.15930  18.79590   0.00000  2       64
siesta:     11.54782   1.32097   0.00000  2       65
siesta:     20.86199   1.32097   0.00000  2       66
siesta:      4.56380   5.35379   0.00000  2       67
siesta:      6.89205   9.38661   0.00000  2       68
siesta:     16.20434   9.38661   0.00000  2       69
siesta:     11.54857  17.45226   0.00000  2       70
siesta:     25.51851   9.38661   0.00000  2       71
siesta:     20.86274  17.45226   0.00000  2       72

siesta: System type = slab      

initatomlists: Number of atoms, orbitals, and projectors:     72   936  1152

siesta: ******************** Simulation parameters ****************************
siesta:
siesta: The following are some of the parameters of the simulation.
siesta: A complete list of the parameters used, including default values,
siesta: can be found in file out.fdf
siesta:
redata: Non-Collinear-spin run           =     F
redata: SpinPolarized (Up/Down) run      =     F
redata: Number of spin components        =     1
redata: Long output                      =     F
redata: Number of Atomic Species         =        2
redata: Charge density info will appear in .RHO file
redata: Write Mulliken Pop.              =     NO
redata: Mesh Cutoff                      =   200.0000  Ry
redata: Net charge of the system         =     0.0000 |e|
redata: Max. number of SCF Iter          =      500
redata: SCF convergence failure will abort job
redata: Performing Pulay mixing using    =    10 iterations
redata: Mix DM in first SCF step ?       =     F
redata: Write Pulay info on disk?        =     F
redata: Discard 1st Pulay DM after  kick =     F
redata: New DM Mixing Weight             =     0.0500
redata: New DM Occupancy tolerance       = 0.000000000001
redata: No kicks to SCF
redata: DM Mixing Weight for Kicks       =     0.5000
redata: DM Tolerance for SCF             =     0.000100
redata: Require Energy convergence for SCF =     F
redata: DM Energy tolerance for SCF      =     0.000100 eV
redata: Require Harris convergence for SCF =     F
redata: DM Harris energy tolerance for SCF =     0.000100 eV
redata: Using Saved Data (generic)   =     F
redata: Use continuation files for DM    =     T
redata: Neglect nonoverlap interactions  =     F
redata: Method of Calculation            =     Diagonalization
redata: Divide and Conquer               =     T
redata: Electronic Temperature           =     0.0019  Ry
redata: Fix the spin of the system       =     F
redata: Dynamics option                  =     Verlet MD run
redata: Initial MD time step             =        1
redata:   Final MD time step             =        1
redata: Length of MD time step           =     1.0000  fs
redata: Initial Temperature of MD run    =     0.0000  K
redata: Perform a MD quench              =     F
redata: ***********************************************************************
Total number of electrons:   297.000000
Total ionic charge:   297.000000

* ProcessorY, Blocksize:    2  24

k-point displ. along   1 input, could be:     0.00    0.50
k-point displ. along   2 input, could be:     0.00    0.50
 Kpoints in:          364 . Kpoints trimmed:          352

siesta: k-grid: Number of k-points =   352
siesta: k-grid: Cutoff (effective) =     5.000 Ang
siesta: k-grid: Supercell and displacements
siesta: k-grid:   26   0   0      0.000
siesta: k-grid:    0  26   0      0.000
siesta: k-grid:    0   0   1      0.000
Naive supercell factors:     2    2    2

superc: Internal auxiliary supercell:     2 x     2 x     2  =       8
superc: Number of atoms, orbitals, and projectors:    576   7488   9216

* Maximum dynamic memory allocated =     6 MB

siesta:                 ==============================
                            Begin MD step =      1
                        ==============================

superc: Internal auxiliary supercell:     2 x     2 x     2  =       8
superc: Number of atoms, orbitals, and projectors:    576   7488   9216

outcell: Unit cell vectors (Ang):
       14.785000    0.000000    0.000000
        7.393000   12.805052    0.000000
        0.000000    0.000000   10.000000

outcell: Cell vector modules (Ang)   :   14.785000   14.786000   10.000000
outcell: Cell angles (23,13,12) (deg):     90.0000     90.0000     60.0000
outcell: Cell volume (Ang**3)        :   1893.2269
New_DM. Step:     1
Initializing Density Matrix...

InitMesh: MESH =   120 x   120 x    90 =     1296000
InitMesh: Mesh cutoff (required, used) =   200.000   223.865 Ry

* Maximum dynamic memory allocated =   187 MB

stepf: Fermi-Dirac step function

siesta: Program's energy decomposition (eV):
siesta: Ebs     =     -4702.286952
siesta: Eions   =     19849.732669
siesta: Ena     =      4064.279598
siesta: Ekin    =      7133.479856
siesta: Enl     =       -33.664617
siesta: DEna    =        -0.000012
siesta: DUscf   =         0.000000
siesta: DUext   =         0.000000
siesta: Exc     =     -4161.692385
siesta: eta*DQ  =         0.000000
siesta: Emadel  =         0.000000
siesta: Emeta   =         0.000000
siesta: Emolmec =         0.000000
siesta: Ekinion =         0.000000
siesta: Eharris =    -12754.402434
siesta: Etot    =    -12847.330229
siesta: FreeEng =    -12847.330229

siesta: iscf   Eharris(eV)      E_KS(eV)   FreeEng(eV)   dDmax  Ef(eV)
siesta:    1   -12754.4024   -12847.3302   -12847.3302  1.9424 -4.8275
timer: Routine,Calls,Time,% = IterSCF        1    6652.565  99.83
elaps: Routine,Calls,Wall,% = IterSCF        1     832.943  99.87
siesta:    2   -12774.9357   -12724.2189   -12724.2587  0.5297 -3.3525
siesta:    3   -12752.1065   -12745.0450   -12745.0690  0.4299 -3.3540
siesta:    4   -12747.3303   -12742.4230   -12742.4472  0.3683 -3.2676
siesta:    5   -12740.0707   -12740.0819   -12740.1053  0.1857 -3.1507
siesta:    6   -12739.3180   -12738.7620   -12738.8063  0.1134 -3.1544
siesta:    7   -12739.4462   -12737.3390   -12737.3819  0.0770 -3.2031
siesta:    8   -12739.1456   -12736.8939   -12736.9306  0.0371 -3.3462
siesta:    9   -12739.0159   -12736.8669   -12736.9016  0.0314 -3.4153
siesta:   10   -12738.9032   -12737.1604   -12737.1967  0.0164 -3.4350
siesta:   11   -12738.8735   -12737.4024   -12737.4404  0.0113 -3.4382
siesta:   12   -12738.8630   -12737.7447   -12737.7828  0.0076 -3.4423
siesta:   13   -12738.8615   -12738.0212   -12738.0596  0.0060 -3.4390
siesta:   14   -12738.8616   -12738.4357   -12738.4742  0.0027 -3.4367
siesta:   15   -12738.8614   -12738.6685   -12738.7069  0.0015 -3.4357
siesta:   16   -12738.8610   -12738.7816   -12738.8200  0.0009 -3.4343
siesta:   17   -12738.8609   -12738.8277   -12738.8662  0.0006 -3.4336
siesta:   18   -12738.8608   -12738.8431   -12738.8816  0.0004 -3.4336
siesta:   19   -12738.8608   -12738.8531   -12738.8916  0.0002 -3.4334
siesta:   20   -12738.8608   -12738.8527   -12738.8912  0.0002 -3.4335
siesta:   21   -12738.8608   -12738.8552   -12738.8937  0.0002 -3.4336
siesta:   22   -12738.8608   -12738.8606   -12738.8991  0.0001 -3.4335

siesta: E_KS(eV) =           -12738.8611

siesta: E_KS - E_eggbox =    -12738.8611

siesta: Atomic forces (eV/Ang):
----------------------------------------
   Tot    0.198686   -0.298258    0.000000
----------------------------------------
   Max    1.391327
   Res    0.340305    sqrt( Sum f_i^2 / 3N )
----------------------------------------
   Max    1.391327    constrained

Stress-tensor-Voigt (kbar):       -0.82        0.22        0.14        0.47        0.00        0.00
(Free)E + p*V (eV/cell)   -12738.7226
Target enthalpy (eV/cell)   -12738.8996

siesta: Stress tensor (static) (eV/Ang**3):
        -0.000510    0.000291    0.000000
         0.000291    0.000140    0.000000
         0.000000    0.000000    0.000090

siesta: Pressure (static):          0.14974166  kBar

siesta: Stress tensor (total) (eV/Ang**3):
        -0.000510    0.000291    0.000000
         0.000291    0.000140    0.000000
         0.000000    0.000000    0.000090

siesta: Pressure (total):          0.14974166  kBar

siesta: Temp_ion =       0.000 K

* Maximum dynamic memory allocated =   203 MB

siesta: Program's energy decomposition (eV):
siesta: Ebs     =     -4185.367331
siesta: Eions   =     19849.732669
siesta: Ena     =      4064.279598
siesta: Ekin    =      8580.084525
siesta: Enl     =     -1058.299252
siesta: DEna    =      -247.544936
siesta: DUscf   =        22.678762
siesta: DUext   =         0.000000
siesta: Exc     =     -4250.327108
siesta: eta*DQ  =         0.000000
siesta: Emadel  =         0.000000
siesta: Emeta   =         0.000000
siesta: Emolmec =         0.000000
siesta: Ekinion =         0.000000
siesta: Eharris =    -12738.860805
siesta: Etot    =    -12738.861081
siesta: FreeEng =    -12738.899577

siesta: Final energy (eV):
siesta:  Band Struct. =   -4185.367331
siesta:       Kinetic =    8580.084525
siesta:       Hartree =   24803.776367
siesta:    Ext. field =       0.000000
siesta:   Exch.-corr. =   -4250.327108
siesta:  Ion-electron =  -57584.284001
siesta:       Ion-ion =   15711.889137
siesta:       Ekinion =       0.000000
siesta:         Total =  -12738.861081

siesta: Atomic forces (eV/Ang):
siesta:      1    0.460809    0.462588    0.000000
siesta:      2   -0.082758    0.371659    0.000000
siesta:      3   -0.767847    0.638515    0.000000
siesta:      4    0.656176    0.211560    0.000000
siesta:      5    0.781619   -0.895400    0.000000
siesta:      6    0.527062   -0.514931    0.000000
siesta:      7   -0.418667    1.391327    0.000000
siesta:      8    0.278904   -0.140193    0.000000
siesta:      9    0.176468    0.365318    0.000000
siesta:     10    0.609327    0.557436    0.000000
siesta:     11    0.272047   -0.910160    0.000000
siesta:     12   -0.010236    0.584393    0.000000
siesta:     13    0.460719   -0.740745    0.000000
siesta:     14    0.388251    0.002043    0.000000
siesta:     15    0.737405   -0.517908    0.000000
siesta:     16   -0.038802   -0.484878    0.000000
siesta:     17   -0.051571    0.263436    0.000000
siesta:     18    0.169081   -0.507082    0.000000
siesta:     19   -0.474601   -0.217575    0.000000
siesta:     20   -0.312703   -0.189117    0.000000
siesta:     21   -0.685395   -0.085293    0.000000
siesta:     22   -0.631713   -0.117835    0.000000
siesta:     23   -0.194358    0.121915    0.000000
siesta:     24   -0.161499    0.112158    0.000000
siesta:     25   -0.160751    0.296193    0.000000
siesta:     26   -0.095248    0.020812    0.000000
siesta:     27    0.290392    0.349867    0.000000
siesta:     28   -0.068064   -0.018010    0.000000
siesta:     29   -0.207601    0.048353    0.000000
siesta:     30    0.174450    0.559490    0.000000
siesta:     31   -0.423338    0.256166    0.000000
siesta:     32    0.323205   -0.344826    0.000000
siesta:     33   -0.050366   -0.138425    0.000000
siesta:     34    0.026577   -0.177357    0.000000
siesta:     35   -0.305390   -0.311903    0.000000
siesta:     36    0.545898    0.087817    0.000000
siesta:     37    0.636208   -0.521708    0.000000
siesta:     38   -0.822681    0.249172    0.000000
siesta:     39    0.365502    0.215541    0.000000
siesta:     40    0.158645   -0.221979    0.000000
siesta:     41   -0.568386    0.156704    0.000000
siesta:     42    0.332047    0.368252    0.000000
siesta:     43   -0.529868    0.381672    0.000000
siesta:     44   -0.182071   -0.210220    0.000000
siesta:     45    0.464804   -0.151734    0.000000
siesta:     46   -0.157745   -0.507698    0.000000
siesta:     47    0.099310   -0.227112    0.000000
siesta:     48    0.587393   -0.222037    0.000000
siesta:     49   -0.625808    0.315207    0.000000
siesta:     50   -0.461398   -0.737277    0.000000
siesta:     51   -0.186800   -0.115483    0.000000
siesta:     52    0.556439    0.185514    0.000000
siesta:     53   -0.574191   -0.083942    0.000000
siesta:     54   -0.597420    0.056072    0.000000
siesta:     55   -0.117218   -0.126086    0.000000
siesta:     56   -0.322794   -0.467099    0.000000
siesta:     57   -0.231962    0.169652    0.000000
siesta:     58    0.085823   -0.078747    0.000000
siesta:     59    0.081269    0.457384    0.000000
siesta:     60    0.079032   -0.310392    0.000000
siesta:     61    0.714430    0.295042    0.000000
siesta:     62    0.117267   -0.079239    0.000000
siesta:     63   -0.316065   -0.299805    0.000000
siesta:     64   -0.815188    0.617330    0.000000
siesta:     65   -0.308079    0.182574    0.000000
siesta:     66    0.139537   -0.028531    0.000000
siesta:     67    0.250186    1.013381    0.000000
siesta:     68   -0.062786   -0.602349    0.000000
siesta:     69    0.017228    0.114210    0.000000
siesta:     70    0.780882   -0.557292    0.000000
siesta:     71   -0.039598    0.132420    0.000000
siesta:     72   -0.084740   -0.049064    0.000000
siesta: ----------------------------------------
siesta:    Tot    0.198686   -0.298258    0.000000

siesta: Stress tensor (static) (eV/Ang**3):
siesta:    -0.000510    0.000291    0.000000
siesta:     0.000291    0.000140    0.000000
siesta:     0.000000    0.000000    0.000090

siesta: Cell volume =       1893.226895 Ang**3

siesta: Pressure (static):
siesta:                Solid            Molecule  Units
siesta:           0.00000102          0.00001610  Ry/Bohr**3
siesta:           0.00009346          0.00147862  eV/Ang**3
siesta:           0.14974166          2.36903206  kBar
(Free)E+ p_basis*V_orbitals  =      -12709.448631
(Free)Eharris+ p_basis*V_orbitals  =      -12709.448853

siesta: Electric dipole (a.u.)  =    0.000000    0.000000    0.000000
siesta: Electric dipole (Debye) =    0.000000    0.000000    0.000000

* Maximum dynamic memory allocated : Node    0 =   203 MB
* Maximum dynamic memory allocated : Node    1 =    74 MB
* Maximum dynamic memory allocated : Node    2 =    76 MB
* Maximum dynamic memory allocated : Node    3 =   192 MB
* Maximum dynamic memory allocated : Node    4 =   202 MB
* Maximum dynamic memory allocated : Node    5 =    73 MB
* Maximum dynamic memory allocated : Node    6 =    75 MB
* Maximum dynamic memory allocated : Node    7 =   187 MB

* Maximum memory occured during matrixMtoO                    

timer: CPU execution times:
timer:  Routine       Calls   Time/call    Tot.time        %
timer:  siesta            1  145147.135  145147.135   100.00
timer:  Setup             1       3.842       3.842     0.00
timer:  bands             1       0.015       0.015     0.00
timer:  writewave         1       0.040       0.040     0.00
timer:  KSV_init          1       0.008       0.008     0.00
timer:  IterMD            1  145135.383  145135.383    99.99
timer:  hsparse           1       0.256       0.256     0.00
timer:  overlap           1       6.337       6.337     0.00
timer:  IterSCF          22    6589.547  144970.041    99.88
timer:  kinefsm           2       3.290       6.580     0.00
timer:  nlefsm            2      18.708      37.417     0.03
timer:  DHSCF            23      90.578    2083.286     1.44
timer:  DHSCF1            1       0.757       0.757     0.00
timer:  DHSCF2            1      32.996      32.996     0.02
timer:  REORD           186       0.010       1.858     0.00
timer:  POISON           24       2.248      53.961     0.04
timer:  DHSCF3           23      87.702    2017.138     1.39
timer:  rhoofd           23      16.132     371.035     0.26
timer:  cellXC           23       3.478      79.989     0.06
timer:  vmat             23      46.094    1060.171     0.73
timer:  MolMec            2       0.000       0.000     0.00
timer:  diagon           22    6496.949  142932.887    98.47
timer:  c-eigval       7744       6.673   51676.461    35.60
timer:  c-buildHS      7744       0.117     908.334     0.63
timer:  cdiag         15488       6.891  106725.205    73.53
timer:  cdiag1        15488       0.424    6562.531     4.52
timer:  cdiag2        15488       1.902   29465.356    20.30
timer:  cdiag3        15488       3.952   61203.525    42.17
timer:  cdiag4        15488       0.204    3155.719     2.17
timer:  c-eigvec       7744       7.298   56516.276    38.94
timer:  c-buildD       7744       4.478   34674.736    23.89
timer:  DHSCF4            1      31.139      31.139     0.02
timer:  dfscf             1      29.314      29.314     0.02
timer:  overfsm           1       0.381       0.381     0.00
timer:  optical           1       6.961       6.961     0.00
  

elaps: ELAPSED times:
elaps:  Routine       Calls   Time/call    Tot.time        %
elaps:  siesta            1   18173.174   18173.174   100.00
elaps:  Setup             1       0.497       0.497     0.00
elaps:  bands             1       0.002       0.002     0.00
elaps:  writewave         1       0.006       0.006     0.00
elaps:  KSV_init          1       0.001       0.001     0.00
elaps:  IterMD            1   18171.680   18171.680    99.99
elaps:  hsparse           1       0.032       0.032     0.00
elaps:  overlap           1       0.523       0.523     0.00
elaps:  IterSCF          22     825.066   18151.445    99.88
elaps:  kinefsm           2       0.275       0.550     0.00
elaps:  nlefsm            2       2.478       4.956     0.03
elaps:  DHSCF            23      11.469     263.776     1.45
elaps:  DHSCF1            1       0.100       0.100     0.00
elaps:  DHSCF2            1       4.123       4.123     0.02
elaps:  REORD           186       0.001       0.249     0.00
elaps:  POISON           24       0.281       6.749     0.04
elaps:  DHSCF3           23      10.972     252.355     1.39
elaps:  rhoofd           23       3.528      81.154     0.45
elaps:  cellXC           23       0.434       9.987     0.05
elaps:  vmat             23       5.766     132.622     0.73
elaps:  MolMec            2       0.000       0.000     0.00
elaps:  diagon           22     813.476   17896.480    98.48
elaps:  c-eigval       7744       0.835    6465.508    35.58
elaps:  c-buildHS      7744       0.016     125.619     0.69
elaps:  cdiag         15488       0.844   13079.101    71.97
elaps:  cdiag1        15488       0.053     816.466     4.49
elaps:  cdiag2        15488       0.238    3686.921    20.29
elaps:  cdiag3        15488       0.495    7668.118    42.19
elaps:  cdiag4        15488       0.026     402.174     2.21
elaps:  c-eigvec       7744       0.882    6826.673    37.56
elaps:  c-buildD       7744       0.584    4524.367    24.90
elaps:  DHSCF4            1       7.029       7.029     0.04
elaps:  dfscf             1       6.652       6.652     0.04
elaps:  overfsm           1       0.049       0.049     0.00
elaps:  optical           1       0.001       0.001     0.00
  
>> End of run:   1-DEC-2015   7:14:39
