Siesta Version:                                        siesta-3.2-pl-3
Architecture  : x86_64-unknown-linux-gnu--unknown
Compiler flags: mpiifort -g -O2 -fPIC -xSSE4.1 -fp-model source -shared-intel 
PARALLEL version

* Running on    8 nodes in parallel
>> Start of run:  29-NOV-2015   1:22:31

                           ***********************       
                           *  WELCOME TO SIESTA  *       
                           ***********************       

reinit: Reading from standard input
************************** Dump of input data file ****************************
#(1) General system descriptors
SystemName            GRP_doping    # Descriptive name of the system
SystemLabel           GRP_doping    # Short name for naming files
%include STRUCT.fdf
%include KPT.fdf
%include BASIS.fdf
#%include TS.fdf # for transiesta calculation
#(4) DFT, Grid, SCF
XC.functional         GGA           # LDA or GGA (default = LDA)
XC.authors            PBE           # CA (Ceperley-Aldr) = PZ
                                    #    (Perdew-Zunger) - LDA - Default
                                    # PW92 (Perdew-Wang-92) - LDA
                                    # PBE (Perdew-Burke-Ernzerhof) - GGA
MeshCutoff            200.000000    Ry      # Default: 50.0 Ry ~ 0.444 Bohr
                                    #         100.0 Ry ~ 0.314 Bohr
MaxSCFIterations      500           # Default: 50
DM.MixingWeight       0.05          # Default: 0.25
DM.NumberPulay        10            # Default: 0
DM.PulayOnFile        F             # SystemLabel.P1, SystemLabel.P2
DM.Tolerance          1.d-4         # Default: 1.d-4
DM.UseSaveDM          .true.        # because of the bug
SCFMustConverge       .true.
NeglNonOverlapInt     F             # Default: F
#(5) Eigenvalue problem: order-N or diagonalization
SolutionMethod        Diagon        # or Transiesta
ElectronicTemperature 300.0 K       # Default: 300.0 K
#(6) Molecular dynamics and relaxations
#MD.TypeOfRun          CG            # Type of dynamics:
#MD.VariableCell       F
#MD.NumCGsteps         0           # 0 for single-point / 100 for gopt
#MD.MaxCGDispl         0.2 Bohr      # Default: 0.2 Bohr
#MD.MaxForceTol        0.02 eV/Ang   # Default: 0.04 eV/Ang
#MD.MaxStressTol       1.0 GPa       # Default: 1.0 GPa
# Geometry Constraints
#%block GeometryConstraints
#	position from 1 to 44
#%endblock GeometryConstraints
************************** End of input data file *****************************

reinit: -----------------------------------------------------------------------
reinit: System Name: GRP_doping
reinit: -----------------------------------------------------------------------
reinit: System Label: GRP_doping                                                  
reinit: -----------------------------------------------------------------------

initatom: Reading input for the pseudopotentials and atomic orbitals ----------
 Species number:            1  Label: N Atomic number:           7
 Species number:            2  Label: C Atomic number:           6
Ground state valence configuration:   2s02  2p03
Reading pseudopotential information in formatted form from N.psf

Valence configuration for pseudopotential generation:
2s( 2.00) rc: 1.48
2p( 3.00) rc: 1.48
3d( 0.00) rc: 1.48
4f( 0.00) rc: 1.48
Ground state valence configuration:   2s02  2p02
Reading pseudopotential information in formatted form from C.psf

Valence configuration for pseudopotential generation:
2s( 2.00) rc: 1.54
2p( 2.00) rc: 1.54
3d( 0.00) rc: 1.54
4f( 0.00) rc: 1.54
For N, standard SIESTA heuristics set lmxkb to 3
 (one more than the basis l, including polarization orbitals).
Use PS.lmax or PS.KBprojectors blocks to override.
For C, standard SIESTA heuristics set lmxkb to 3
 (one more than the basis l, including polarization orbitals).
Use PS.lmax or PS.KBprojectors blocks to override.

<basis_specs>
===============================================================================
N                    Z=   7    Mass=  14.010        Charge= 0.17977+309
Lmxo=1 Lmxkb= 3    BasisType=split      Semic=F
L=0  Nsemic=0  Cnfigmx=2
          n=1  nzeta=2  polorb=0
            splnorm:   0.15000    
               vcte:    0.0000    
               rinn:    0.0000    
                rcs:    0.0000      0.0000    
            lambdas:    1.0000      1.0000    
L=1  Nsemic=0  Cnfigmx=2
          n=1  nzeta=2  polorb=1
            splnorm:   0.15000    
               vcte:    0.0000    
               rinn:    0.0000    
                rcs:    0.0000      0.0000    
            lambdas:    1.0000      1.0000    
-------------------------------------------------------------------------------
L=0  Nkbl=1  erefs: 0.17977+309
L=1  Nkbl=1  erefs: 0.17977+309
L=2  Nkbl=1  erefs: 0.17977+309
L=3  Nkbl=1  erefs: 0.17977+309
===============================================================================
</basis_specs>

atom: Called for N                     (Z =   7)

read_vps: Pseudopotential generation method:
read_vps: ATM3      Troullier-Martins                       
Total valence charge:    5.00000

read_vps: Pseudopotential includes a core correction:
read_vps: Pseudo-core for xc-correction

xc_check: Exchange-correlation functional:
xc_check: GGA Perdew, Burke & Ernzerhof 1996
V l=0 = -2*Zval/r beyond r=  1.4606
V l=1 = -2*Zval/r beyond r=  1.4606
V l=2 = -2*Zval/r beyond r=  1.4606
V l=3 = -2*Zval/r beyond r=  1.4606
All V_l potentials equal beyond r=  1.4606
This should be close to max(r_c) in ps generation
All pots = -2*Zval/r beyond r=  1.4606

VLOCAL1: 99.0% of the norm of Vloc inside     20.347 Ry
VLOCAL1: 99.9% of the norm of Vloc inside     46.372 Ry
atom: Maximum radius for 4*pi*r*r*local-pseudopot. charge    1.76189
atom: Maximum radius for r*vlocal+2*Zval:    1.53550
GHOST: No ghost state for L =  0
GHOST: No ghost state for L =  1
GHOST: No ghost state for L =  2
GHOST: No ghost state for L =  3

KBgen: Kleinman-Bylander projectors: 
   l= 0   rc=  1.634559   el= -1.363963   Ekb=  5.296955   kbcos=  0.335621
   l= 1   rc=  1.614250   el= -0.521451   Ekb= -5.259161   kbcos= -0.433408
   l= 2   rc=  1.718383   el=  0.001991   Ekb= -1.271464   kbcos= -0.007566
   l= 3   rc=  1.761893   el=  0.003093   Ekb= -0.494769   kbcos= -0.001015

KBgen: Total number of  Kleinman-Bylander projectors:   16
atom: -------------------------------------------------------------------------

atom: SANKEY-TYPE ORBITALS:
atom: Selected multiple-zeta basis: split     

SPLIT: Orbitals with angular momentum L= 0

SPLIT: Basis orbitals for state 2s

SPLIT: PAO cut-off radius determined from an
SPLIT: energy shift=  0.007350 Ry

   izeta = 1
                 lambda =    1.000000
                     rc =    4.071465
                 energy =   -1.356470
                kinetic =    1.176977
    potential(screened) =   -2.533447
       potential(ionic) =   -8.057990

   izeta = 2
                 rmatch =    2.905100
              splitnorm =    0.150000
                 energy =   -1.158343
                kinetic =    1.813009
    potential(screened) =   -2.971352
       potential(ionic) =   -8.901931

SPLIT: Orbitals with angular momentum L= 1

SPLIT: Basis orbitals for state 2p

SPLIT: PAO cut-off radius determined from an
SPLIT: energy shift=  0.007350 Ry

   izeta = 1
                 lambda =    1.000000
                     rc =    4.972977
                 energy =   -0.513884
                kinetic =    3.441732
    potential(screened) =   -3.955616
       potential(ionic) =   -9.287901

   izeta = 2
                 rmatch =    3.054066
              splitnorm =    0.150000
                 energy =   -0.318226
                kinetic =    5.125348
    potential(screened) =   -5.443573
       potential(ionic) =  -11.380999

POLgen: Perturbative polarization orbital with L=  2

POLgen: Polarization orbital for state 2p

   izeta = 1
                     rc =    4.972977
                 energy =    1.607437
                kinetic =    3.268125
    potential(screened) =   -1.660688
       potential(ionic) =   -5.973652
atom: Total number of Sankey-type orbitals: 13

atm_pop: Valence configuration (for local Pseudopot. screening):
 2s( 2.00)                                                            
 2p( 3.00)                                                            
Vna: chval, zval:    5.00000   5.00000

Vna:  Cut-off radius for the neutral-atom potential:   4.972977
comcore: Pseudo-core radius Rcore=  1.554824

atom: _________________________________________________________________________

<basis_specs>
===============================================================================
C                    Z=   6    Mass=  12.010        Charge= 0.17977+309
Lmxo=1 Lmxkb= 3    BasisType=split      Semic=F
L=0  Nsemic=0  Cnfigmx=2
          n=1  nzeta=2  polorb=0
            splnorm:   0.15000    
               vcte:    0.0000    
               rinn:    0.0000    
                rcs:    0.0000      0.0000    
            lambdas:    1.0000      1.0000    
L=1  Nsemic=0  Cnfigmx=2
          n=1  nzeta=2  polorb=1
            splnorm:   0.15000    
               vcte:    0.0000    
               rinn:    0.0000    
                rcs:    0.0000      0.0000    
            lambdas:    1.0000      1.0000    
-------------------------------------------------------------------------------
L=0  Nkbl=1  erefs: 0.17977+309
L=1  Nkbl=1  erefs: 0.17977+309
L=2  Nkbl=1  erefs: 0.17977+309
L=3  Nkbl=1  erefs: 0.17977+309
===============================================================================
</basis_specs>

atom: Called for C                     (Z =   6)

read_vps: Pseudopotential generation method:
read_vps: ATM3      Troullier-Martins                       
Total valence charge:    4.00000

read_vps: Pseudopotential includes a core correction:
read_vps: Pseudo-core for xc-correction

xc_check: Exchange-correlation functional:
xc_check: GGA Perdew, Burke & Ernzerhof 1996
V l=0 = -2*Zval/r beyond r=  1.5227
V l=1 = -2*Zval/r beyond r=  1.5227
V l=2 = -2*Zval/r beyond r=  1.5227
V l=3 = -2*Zval/r beyond r=  1.5038
All V_l potentials equal beyond r=  1.5227
This should be close to max(r_c) in ps generation
All pots = -2*Zval/r beyond r=  1.5227

VLOCAL1: 99.0% of the norm of Vloc inside     18.722 Ry
VLOCAL1: 99.9% of the norm of Vloc inside     42.668 Ry
atom: Maximum radius for 4*pi*r*r*local-pseudopot. charge    1.83678
atom: Maximum radius for r*vlocal+2*Zval:    1.58088
GHOST: No ghost state for L =  0
GHOST: No ghost state for L =  1
GHOST: No ghost state for L =  2
GHOST: No ghost state for L =  3

KBgen: Kleinman-Bylander projectors: 
   l= 0   rc=  1.704034   el= -1.009801   Ekb=  5.335044   kbcos=  0.316824
   l= 1   rc=  1.704034   el= -0.388707   Ekb= -3.785862   kbcos= -0.366464
   l= 2   rc=  1.791422   el=  0.001971   Ekb= -0.970471   kbcos= -0.009212
   l= 3   rc=  1.859892   el=  0.003065   Ekb= -0.399525   kbcos= -0.001223

KBgen: Total number of  Kleinman-Bylander projectors:   16
atom: -------------------------------------------------------------------------

atom: SANKEY-TYPE ORBITALS:
atom: Selected multiple-zeta basis: split     

SPLIT: Orbitals with angular momentum L= 0

SPLIT: Basis orbitals for state 2s

SPLIT: PAO cut-off radius determined from an
SPLIT: energy shift=  0.007350 Ry

   izeta = 1
                 lambda =    1.000000
                     rc =    4.632753
                 energy =   -1.002270
                kinetic =    0.855760
    potential(screened) =   -1.858031
       potential(ionic) =   -5.417575

   izeta = 2
                 rmatch =    3.431921
              splitnorm =    0.150000
                 energy =   -0.867111
                kinetic =    1.300804
    potential(screened) =   -2.167915
       potential(ionic) =   -5.962684

SPLIT: Orbitals with angular momentum L= 1

SPLIT: Basis orbitals for state 2p

SPLIT: PAO cut-off radius determined from an
SPLIT: energy shift=  0.007350 Ry

   izeta = 1
                 lambda =    1.000000
                     rc =    5.658549
                 energy =   -0.381140
                kinetic =    2.399701
    potential(screened) =   -2.780841
       potential(ionic) =   -6.206085

   izeta = 2
                 rmatch =    3.653288
              splitnorm =    0.150000
                 energy =   -0.249149
                kinetic =    3.542762
    potential(screened) =   -3.791911
       potential(ionic) =   -7.581078

POLgen: Perturbative polarization orbital with L=  2

POLgen: Polarization orbital for state 2p

   izeta = 1
                     rc =    5.658549
                 energy =    1.109913
                kinetic =    2.304789
    potential(screened) =   -1.194876
       potential(ionic) =   -4.013592
atom: Total number of Sankey-type orbitals: 13

atm_pop: Valence configuration (for local Pseudopot. screening):
 2s( 2.00)                                                            
 2p( 2.00)                                                            
Vna: chval, zval:    4.00000   4.00000

Vna:  Cut-off radius for the neutral-atom potential:   5.658549
comcore: Pseudo-core radius Rcore=  1.791422

atom: _________________________________________________________________________

prinput: Basis input ----------------------------------------------------------

PAO.BasisType split     

%block ChemicalSpeciesLabel
    1    7 N                       # Species index, atomic number, species label
    2    6 C                       # Species index, atomic number, species label
%endblock ChemicalSpeciesLabel

%block PAO.Basis                 # Define Basis set
N                     2                    # Species label, number of l-shells
 n=2   0   2                         # n, l, Nzeta 
   4.071      2.905   
   1.000      1.000   
 n=2   1   2 P   1                   # n, l, Nzeta, Polarization, NzetaPol
   4.973      3.054   
   1.000      1.000   
C                     2                    # Species label, number of l-shells
 n=2   0   2                         # n, l, Nzeta 
   4.633      3.432   
   1.000      1.000   
 n=2   1   2 P   1                   # n, l, Nzeta, Polarization, NzetaPol
   5.659      3.653   
   1.000      1.000   
%endblock PAO.Basis

prinput: ----------------------------------------------------------------------

coor:   Atomic-coordinates input format  =     Cartesian coordinates
coor:                                          (in Angstroms)

siesta: Atomic coordinates (Bohr) and species
siesta:      2.23554   1.32097   0.00000  1        1
siesta:     34.83116  17.45226   0.00000  1        2
siesta:     11.54782   1.32097   0.00000  1        3
siesta:     20.86199   1.32097   0.00000  1        4
siesta:      6.89205   9.38661   0.00000  1        5
siesta:     16.20434   9.38661   0.00000  1        6
siesta:     11.54857  17.45226   0.00000  1        7
siesta:     25.51851   9.38661   0.00000  1        8
siesta:     20.86274  17.45226   0.00000  1        9
siesta:      4.56367   2.66461   0.00000  2       10
siesta:     32.50328  21.48508   0.00000  2       11
siesta:     34.83141  22.82873   0.00000  2       12
siesta:     37.15930  18.79590   0.00000  2       13
siesta:     32.50291  13.41944   0.00000  2       14
siesta:     34.83104  14.76308   0.00000  2       15
siesta:     30.17465   9.38661   0.00000  2       16
siesta:     32.50278  10.73026   0.00000  2       17
siesta:     27.84639   5.35379   0.00000  2       18
siesta:     30.17453   6.69743   0.00000  2       19
siesta:     27.84714  21.48508   0.00000  2       20
siesta:     30.17527  22.82873   0.00000  2       21
siesta:      6.89168   1.32097   0.00000  2       22
siesta:      9.21981   2.66461   0.00000  2       23
siesta:     13.87595   2.66461   0.00000  2       24
siesta:     16.20396   1.32097   0.00000  2       25
siesta:     18.53210   2.66461   0.00000  2       26
siesta:     23.19013   2.66461   0.00000  2       27
siesta:     25.51813   1.32097   0.00000  2       28
siesta:     27.84627   2.66461   0.00000  2       29
siesta:      4.56380   5.35379   0.00000  2       30
siesta:      6.89193   6.69743   0.00000  2       31
siesta:      9.21994   5.35379   0.00000  2       32
siesta:     11.54807   6.69743   0.00000  2       33
siesta:     13.87608   5.35379   0.00000  2       34
siesta:     16.20421   6.69743   0.00000  2       35
siesta:     18.53411   5.35379   0.00000  2       36
siesta:     20.86224   6.69743   0.00000  2       37
siesta:     23.19025   5.35379   0.00000  2       38
siesta:     25.51838   6.69743   0.00000  2       39
siesta:      9.22019  10.73026   0.00000  2       40
siesta:     11.54820   9.38661   0.00000  2       41
siesta:     13.87633  10.73026   0.00000  2       42
siesta:     18.53247  10.73026   0.00000  2       43
siesta:     20.86237   9.38661   0.00000  2       44
siesta:     23.19050  10.73026   0.00000  2       45
siesta:      9.22031  13.41944   0.00000  2       46
siesta:     11.54845  14.76308   0.00000  2       47
siesta:     13.87645  13.41944   0.00000  2       48
siesta:     16.20459  14.76308   0.00000  2       49
siesta:     18.53448  13.41944   0.00000  2       50
siesta:     20.86262  14.76308   0.00000  2       51
siesta:     13.87670  18.79590   0.00000  2       52
siesta:     16.20471  17.45226   0.00000  2       53
siesta:     18.53284  18.79590   0.00000  2       54
siesta:     13.87683  21.48508   0.00000  2       55
siesta:     16.20496  22.82873   0.00000  2       56
siesta:     18.53486  21.48508   0.00000  2       57
siesta:     20.86299  22.82873   0.00000  2       58
siesta:     27.84664  10.73026   0.00000  2       59
siesta:     23.19063  13.41944   0.00000  2       60
siesta:     25.51876  14.76308   0.00000  2       61
siesta:     23.19088  18.79590   0.00000  2       62
siesta:     27.84677  13.41944   0.00000  2       63
siesta:     30.17490  14.76308   0.00000  2       64
siesta:     25.51888  17.45226   0.00000  2       65
siesta:     27.84702  18.79590   0.00000  2       66
siesta:     23.19100  21.48508   0.00000  2       67
siesta:     25.51913  22.82873   0.00000  2       68
siesta:     30.17503  17.45226   0.00000  2       69
siesta:     32.50316  18.79590   0.00000  2       70
siesta:     37.16131  21.48508   0.00000  2       71
siesta:     39.48945  22.82873   0.00000  2       72

siesta: System type = slab      

initatomlists: Number of atoms, orbitals, and projectors:     72   936  1152

siesta: ******************** Simulation parameters ****************************
siesta:
siesta: The following are some of the parameters of the simulation.
siesta: A complete list of the parameters used, including default values,
siesta: can be found in file out.fdf
siesta:
redata: Non-Collinear-spin run           =     F
redata: SpinPolarized (Up/Down) run      =     F
redata: Number of spin components        =     1
redata: Long output                      =     F
redata: Number of Atomic Species         =        2
redata: Charge density info will appear in .RHO file
redata: Write Mulliken Pop.              =     NO
redata: Mesh Cutoff                      =   200.0000  Ry
redata: Net charge of the system         =     0.0000 |e|
redata: Max. number of SCF Iter          =      500
redata: SCF convergence failure will abort job
redata: Performing Pulay mixing using    =    10 iterations
redata: Mix DM in first SCF step ?       =     F
redata: Write Pulay info on disk?        =     F
redata: Discard 1st Pulay DM after  kick =     F
redata: New DM Mixing Weight             =     0.0500
redata: New DM Occupancy tolerance       = 0.000000000001
redata: No kicks to SCF
redata: DM Mixing Weight for Kicks       =     0.5000
redata: DM Tolerance for SCF             =     0.000100
redata: Require Energy convergence for SCF =     F
redata: DM Energy tolerance for SCF      =     0.000100 eV
redata: Require Harris convergence for SCF =     F
redata: DM Harris energy tolerance for SCF =     0.000100 eV
redata: Using Saved Data (generic)   =     F
redata: Use continuation files for DM    =     T
redata: Neglect nonoverlap interactions  =     F
redata: Method of Calculation            =     Diagonalization
redata: Divide and Conquer               =     T
redata: Electronic Temperature           =     0.0019  Ry
redata: Fix the spin of the system       =     F
redata: Dynamics option                  =     Verlet MD run
redata: Initial MD time step             =        1
redata:   Final MD time step             =        1
redata: Length of MD time step           =     1.0000  fs
redata: Initial Temperature of MD run    =     0.0000  K
redata: Perform a MD quench              =     F
redata: ***********************************************************************
Total number of electrons:   297.000000
Total ionic charge:   297.000000

* ProcessorY, Blocksize:    2  24

k-point displ. along   1 input, could be:     0.00    0.50
k-point displ. along   2 input, could be:     0.00    0.50
 Kpoints in:          364 . Kpoints trimmed:          352

siesta: k-grid: Number of k-points =   352
siesta: k-grid: Cutoff (effective) =     5.000 Ang
siesta: k-grid: Supercell and displacements
siesta: k-grid:   26   0   0      0.000
siesta: k-grid:    0  26   0      0.000
siesta: k-grid:    0   0   1      0.000
Naive supercell factors:     2    2    2

superc: Internal auxiliary supercell:     2 x     2 x     2  =       8
superc: Number of atoms, orbitals, and projectors:    576   7488   9216

* Maximum dynamic memory allocated =     6 MB

siesta:                 ==============================
                            Begin MD step =      1
                        ==============================

superc: Internal auxiliary supercell:     2 x     2 x     2  =       8
superc: Number of atoms, orbitals, and projectors:    576   7488   9216

outcell: Unit cell vectors (Ang):
       14.785000    0.000000    0.000000
        7.393000   12.805052    0.000000
        0.000000    0.000000   10.000000

outcell: Cell vector modules (Ang)   :   14.785000   14.786000   10.000000
outcell: Cell angles (23,13,12) (deg):     90.0000     90.0000     60.0000
outcell: Cell volume (Ang**3)        :   1893.2269
New_DM. Step:     1
Initializing Density Matrix...

iodm: Reading Density Matrix from files
 Read DM has different structure. Fixing...

InitMesh: MESH =   120 x   120 x    90 =     1296000
InitMesh: Mesh cutoff (required, used) =   200.000   223.865 Ry

* Maximum dynamic memory allocated =   187 MB

stepf: Fermi-Dirac step function

siesta: Program's energy decomposition (eV):
siesta: Ebs     =     -4242.331871
siesta: Eions   =     19849.732669
siesta: Ena     =      4064.212984
siesta: Ekin    =      8472.603908
siesta: Enl     =      -987.476045
siesta: DEna    =      -308.528157
siesta: DUscf   =       160.568603
siesta: DUext   =         0.000000
siesta: Exc     =     -4275.982776
siesta: eta*DQ  =         0.000000
siesta: Emadel  =         0.000000
siesta: Emeta   =         0.000000
siesta: Emolmec =         0.000000
siesta: Ekinion =         0.000000
siesta: Eharris =    -13078.519280
siesta: Etot    =    -12724.334151
siesta: FreeEng =    -12724.334151

siesta: iscf   Eharris(eV)      E_KS(eV)   FreeEng(eV)   dDmax  Ef(eV)
siesta:    1   -13078.5193   -12724.3342   -12724.3342  0.9797 -2.6169
timer: Routine,Calls,Time,% = IterSCF        1    8103.579  99.85
elaps: Routine,Calls,Wall,% = IterSCF        1    1014.596  99.85
siesta:    2   -21441.2527   -11201.8995   -11201.9626 78.0979-12.6933
siesta:    3   -12934.4142   -12737.1940   -12737.2508  1.0968 -2.9628
siesta:    4   -12861.4196   -12746.3165   -12746.3486  1.1332 -2.9040
siesta:    5   -12809.2523   -12752.1600   -12752.1925  0.7594 -2.9413
siesta:    6   -12760.3740   -12753.6587   -12753.7111  0.5073 -2.9737
siesta:    7   -12745.1117   -12749.9729   -12750.0329  0.4440 -3.0028
siesta:    8   -12741.8172   -12744.1901   -12744.2476  0.3661 -3.0705
siesta:    9   -12742.0657   -12738.5614   -12738.6038  0.2285 -3.2927
siesta:   10   -12741.9056   -12735.9305   -12735.9651  0.1519 -3.5308
siesta:   11   -12740.6798   -12735.4746   -12735.5184  0.0956 -3.5593
siesta:   12   -12739.7391   -12735.2888   -12735.3372  0.0730 -3.5260
siesta:   13   -12739.7088   -12735.6314   -12735.6857  0.0582 -3.5229
siesta:   14   -12739.6736   -12736.3149   -12736.3686  0.0436 -3.4944
siesta:   15   -12739.6277   -12737.2634   -12737.3137  0.0307 -3.4463
siesta:   16   -12739.6025   -12737.7897   -12737.8406  0.0177 -3.4257
siesta:   17   -12739.5849   -12738.2564   -12738.3077  0.0115 -3.4144
siesta:   18   -12739.5806   -12738.6153   -12738.6670  0.0082 -3.4119
siesta:   19   -12739.5797   -12738.8399   -12738.8912  0.0063 -3.4128
siesta:   20   -12739.5796   -12739.2563   -12739.3077  0.0029 -3.4144
siesta:   21   -12739.5794   -12739.3790   -12739.4304  0.0016 -3.4161
siesta:   22   -12739.5793   -12739.4399   -12739.4913  0.0011 -3.4169
siesta:   23   -12739.5790   -12739.4969   -12739.5483  0.0006 -3.4177
siesta:   24   -12739.5788   -12739.5362   -12739.5875  0.0003 -3.4179
siesta:   25   -12739.5788   -12739.5464   -12739.5977  0.0003 -3.4179
siesta:   26   -12739.5788   -12739.5524   -12739.6037  0.0002 -3.4179
siesta:   27   -12739.5788   -12739.5616   -12739.6129  0.0002 -3.4178
siesta:   28   -12739.5788   -12739.5676   -12739.6189  0.0001 -3.4178
siesta:   29   -12739.5788   -12739.5715   -12739.6228  0.0001 -3.4177

siesta: E_KS(eV) =           -12739.5721

siesta: E_KS - E_eggbox =    -12739.5721

siesta: Atomic forces (eV/Ang):
----------------------------------------
   Tot    0.186142   -0.338250    0.000000
----------------------------------------
   Max    0.918347
   Res    0.241210    sqrt( Sum f_i^2 / 3N )
----------------------------------------
   Max    0.918347    constrained

Stress-tensor-Voigt (kbar):        0.98        0.85        0.15        0.09        0.00        0.00
(Free)E + p*V (eV/cell)   -12740.4023
Target enthalpy (eV/cell)   -12739.6234

siesta: Stress tensor (static) (eV/Ang**3):
         0.000613    0.000053    0.000000
         0.000053    0.000529    0.000000
         0.000000    0.000000    0.000092

siesta: Pressure (static):         -0.65909836  kBar

siesta: Stress tensor (total) (eV/Ang**3):
         0.000613    0.000053    0.000000
         0.000053    0.000529    0.000000
         0.000000    0.000000    0.000092

siesta: Pressure (total):         -0.65909836  kBar

siesta: Temp_ion =       0.000 K

* Maximum dynamic memory allocated =   203 MB

siesta: Program's energy decomposition (eV):
siesta: Ebs     =     -4186.354612
siesta: Eions   =     19849.732669
siesta: Ena     =      4064.212984
siesta: Ekin    =      8579.670102
siesta: Enl     =     -1058.752721
siesta: DEna    =      -247.194400
siesta: DUscf   =        22.381980
siesta: DUext   =         0.000000
siesta: Exc     =     -4250.157353
siesta: eta*DQ  =         0.000000
siesta: Emadel  =         0.000000
siesta: Emeta   =         0.000000
siesta: Emolmec =         0.000000
siesta: Ekinion =         0.000000
siesta: Eharris =    -12739.578769
siesta: Etot    =    -12739.572076
siesta: FreeEng =    -12739.623430

siesta: Final energy (eV):
siesta:  Band Struct. =   -4186.354612
siesta:       Kinetic =    8579.670102
siesta:       Hartree =   24797.231722
siesta:    Ext. field =       0.000000
siesta:   Exch.-corr. =   -4250.157353
siesta:  Ion-electron =  -57571.955409
siesta:       Ion-ion =   15705.638861
siesta:       Ekinion =       0.000000
siesta:         Total =  -12739.572076

siesta: Atomic forces (eV/Ang):
siesta:      1    0.134387   -0.011834    0.000000
siesta:      2    0.884144   -0.366042    0.000000
siesta:      3   -0.064180    0.014262    0.000000
siesta:      4   -0.063404   -0.326500    0.000000
siesta:      5    0.202725   -0.183845    0.000000
siesta:      6   -0.079536    0.113737    0.000000
siesta:      7   -0.596372   -0.022346    0.000000
siesta:      8    0.080743    0.025838    0.000000
siesta:      9   -0.035999    0.000227    0.000000
siesta:     10   -0.352294   -0.175636    0.000000
siesta:     11    0.143634    0.237400    0.000000
siesta:     12    0.002328    0.918347    0.000000
siesta:     13   -0.351925   -0.473626    0.000000
siesta:     14    0.833114    0.150681    0.000000
siesta:     15   -0.630896    0.781832    0.000000
siesta:     16    0.023112   -0.211644    0.000000
siesta:     17    0.447912   -0.050108    0.000000
siesta:     18    0.378738    0.260672    0.000000
siesta:     19   -0.101827   -0.064022    0.000000
siesta:     20    0.006703    0.663026    0.000000
siesta:     21   -0.020500   -0.660927    0.000000
siesta:     22    0.032048   -0.374475    0.000000
siesta:     23    0.283137   -0.103360    0.000000
siesta:     24   -0.181144   -0.370062    0.000000
siesta:     25    0.049492    0.096179    0.000000
siesta:     26    0.269593   -0.351910    0.000000
siesta:     27   -0.266503    0.008675    0.000000
siesta:     28    0.063468   -0.360052    0.000000
siesta:     29    0.140285   -0.244126    0.000000
siesta:     30   -0.227682    0.141293    0.000000
siesta:     31    0.025589    0.302094    0.000000
siesta:     32    0.246030    0.118905    0.000000
siesta:     33   -0.059344    0.073351    0.000000
siesta:     34   -0.154754    0.283675    0.000000
siesta:     35    0.029421    0.049300    0.000000
siesta:     36    0.210203    0.346317    0.000000
siesta:     37    0.007701    0.032569    0.000000
siesta:     38   -0.317915    0.098241    0.000000
siesta:     39   -0.044506    0.360063    0.000000
siesta:     40   -0.677876    0.131776    0.000000
siesta:     41    0.252909   -0.374240    0.000000
siesta:     42    0.186263   -0.218592    0.000000
siesta:     43   -0.012135   -0.145843    0.000000
siesta:     44   -0.193776   -0.366348    0.000000
siesta:     45    0.426550   -0.083591    0.000000
siesta:     46    0.059710    0.300557    0.000000
siesta:     47    0.122797   -0.069597    0.000000
siesta:     48    0.102906    0.288279    0.000000
siesta:     49    0.166938   -0.110990    0.000000
siesta:     50   -0.496727    0.121740    0.000000
siesta:     51    0.216697    0.320606    0.000000
siesta:     52   -0.130583    0.019841    0.000000
siesta:     53   -0.083707   -0.281959    0.000000
siesta:     54    0.255356   -0.178064    0.000000
siesta:     55   -0.121764    0.124896    0.000000
siesta:     56   -0.073066    0.284768    0.000000
siesta:     57    0.344680    0.180872    0.000000
siesta:     58   -0.110033    0.024502    0.000000
siesta:     59   -0.581292   -0.379219    0.000000
siesta:     60   -0.011962    0.024854    0.000000
siesta:     61    0.293210    0.238976    0.000000
siesta:     62   -0.377054   -0.278048    0.000000
siesta:     63   -0.301268   -0.024196    0.000000
siesta:     64   -0.369663   -0.421310    0.000000
siesta:     65   -0.474941   -0.467638    0.000000
siesta:     66   -0.036348    0.216049    0.000000
siesta:     67   -0.212318    0.120660    0.000000
siesta:     68    0.114545    0.438240    0.000000
siesta:     69    0.458942   -0.052531    0.000000
siesta:     70    0.561153   -0.146499    0.000000
siesta:     71   -0.028717   -0.225487    0.000000
siesta:     72   -0.029009   -0.076881    0.000000
siesta: ----------------------------------------
siesta:    Tot    0.186142   -0.338250    0.000000

siesta: Stress tensor (static) (eV/Ang**3):
siesta:     0.000613    0.000053    0.000000
siesta:     0.000053    0.000529    0.000000
siesta:     0.000000    0.000000    0.000092

siesta: Cell volume =       1893.226895 Ang**3

siesta: Pressure (static):
siesta:                Solid            Molecule  Units
siesta:          -0.00000448         -0.00005361  Ry/Bohr**3
siesta:          -0.00041137         -0.00492253  eV/Ang**3
siesta:          -0.65909836         -7.88684857  kBar
(Free)E+ p_basis*V_orbitals  =      -12710.172484
(Free)Eharris+ p_basis*V_orbitals  =      -12710.179783

siesta: Electric dipole (a.u.)  =    0.000000    0.000000    0.000000
siesta: Electric dipole (Debye) =    0.000000    0.000000    0.000000

* Maximum dynamic memory allocated : Node    0 =   203 MB
* Maximum dynamic memory allocated : Node    1 =    74 MB
* Maximum dynamic memory allocated : Node    2 =    76 MB
* Maximum dynamic memory allocated : Node    3 =   193 MB
* Maximum dynamic memory allocated : Node    4 =   202 MB
* Maximum dynamic memory allocated : Node    5 =    74 MB
* Maximum dynamic memory allocated : Node    6 =    76 MB
* Maximum dynamic memory allocated : Node    7 =   187 MB

* Maximum memory occured during matrixMtoO                    

timer: CPU execution times:
timer:  Routine       Calls   Time/call    Tot.time        %
timer:  siesta            1  232110.624  232110.624   100.00
timer:  Setup             1       3.116       3.116     0.00
timer:  bands             1       0.011       0.011     0.00
timer:  writewave         1       0.019       0.019     0.00
timer:  KSV_init          1       0.001       0.001     0.00
timer:  IterMD            1  232099.357  232099.357   100.00
timer:  hsparse           1       0.268       0.268     0.00
timer:  overlap           1       6.347       6.347     0.00
timer:  IterSCF          29    7997.628  231931.200    99.92
timer:  kinefsm           2       3.261       6.521     0.00
timer:  nlefsm            2      18.859      37.717     0.02
timer:  DHSCF            30      90.929    2727.859     1.18
timer:  DHSCF1            1       0.814       0.814     0.00
timer:  DHSCF2            1      34.908      34.908     0.02
timer:  REORD           242       0.014       3.365     0.00
timer:  POISON           31       3.765     116.716     0.05
timer:  DHSCF3           30      88.620    2658.613     1.15
timer:  rhoofd           30      16.275     488.261     0.21
timer:  cellXC           30       3.573     107.183     0.05
timer:  vmat             30      44.685    1340.545     0.58
timer:  MolMec            2       0.000       0.000     0.00
timer:  diagon           29    7905.254  229252.352    98.77
timer:  c-eigval      10208       7.271   74224.833    31.98
timer:  c-buildHS     10208       0.216    2200.173     0.95
timer:  cdiag         20416       7.433  151754.511    65.38
timer:  cdiag1        20416       0.467    9539.465     4.11
timer:  cdiag2        20416       1.987   40560.915    17.47
timer:  cdiag3        20416       4.185   85449.773    36.81
timer:  cdiag4        20416       0.252    5145.617     2.22
timer:  c-eigvec      10208       7.903   80671.042    34.76
timer:  c-buildD      10208       7.272   74229.277    31.98
timer:  DHSCF4            1      30.801      30.801     0.01
timer:  dfscf             1      28.936      28.936     0.01
timer:  overfsm           1       0.377       0.377     0.00
timer:  optical           1       7.125       7.125     0.00
  

elaps: ELAPSED times:
elaps:  Routine       Calls   Time/call    Tot.time        %
elaps:  siesta            1   29059.577   29059.577   100.00
elaps:  Setup             1       0.389       0.389     0.00
elaps:  bands             1       0.001       0.001     0.00
elaps:  writewave         1       0.002       0.002     0.00
elaps:  KSV_init          1       0.000       0.000     0.00
elaps:  IterMD            1   29058.169   29058.169   100.00
elaps:  hsparse           1       0.031       0.031     0.00
elaps:  overlap           1       0.969       0.969     0.00
elaps:  IterSCF          29    1001.280   29037.131    99.92
elaps:  kinefsm           2       0.496       0.992     0.00
elaps:  nlefsm            2       2.306       4.611     0.02
elaps:  DHSCF            30      11.485     344.544     1.19
elaps:  DHSCF1            1       0.105       0.105     0.00
elaps:  DHSCF2            1       4.365       4.365     0.02
elaps:  REORD           242       0.002       0.429     0.00
elaps:  POISON           31       0.474      14.683     0.05
elaps:  DHSCF3           30      11.088     332.625     1.14
elaps:  rhoofd           30       3.616     108.484     0.37
elaps:  cellXC           30       0.446      13.375     0.05
elaps:  vmat             30       5.590     167.705     0.58
elaps:  MolMec            2       0.000       0.000     0.00
elaps:  diagon           29     989.752   28702.819    98.77
elaps:  c-eigval      10208       0.910    9288.108    31.96
elaps:  c-buildHS     10208       0.028     289.800     1.00
elaps:  cdiag         20416       0.913   18649.893    64.18
elaps:  cdiag1        20416       0.058    1175.566     4.05
elaps:  cdiag2        20416       0.249    5075.404    17.47
elaps:  cdiag3        20416       0.525   10708.954    36.85
elaps:  cdiag4        20416       0.032     656.636     2.26
elaps:  c-eigvec      10208       0.959    9787.465    33.68
elaps:  c-buildD      10208       0.941    9609.184    33.07
elaps:  DHSCF4            1       7.069       7.069     0.02
elaps:  dfscf             1       6.688       6.688     0.02
elaps:  overfsm           1       0.047       0.047     0.00
elaps:  optical           1       0.000       0.000     0.00
  
>> End of run:  29-NOV-2015   9:26:51
