Siesta Version:                                        siesta-3.2-pl-3
Architecture  : x86_64-unknown-linux-gnu--unknown
Compiler flags: mpiifort -g -O2 -fPIC -xSSE4.1 -fp-model source -shared-intel 
PARALLEL version

* Running on    8 nodes in parallel
>> Start of run:  29-NOV-2015   0:54:53

                           ***********************       
                           *  WELCOME TO SIESTA  *       
                           ***********************       

reinit: Reading from standard input
************************** Dump of input data file ****************************
#(1) General system descriptors
SystemName            GRP_doping    # Descriptive name of the system
SystemLabel           GRP_doping    # Short name for naming files
%include STRUCT.fdf
%include KPT.fdf
%include BASIS.fdf
#%include TS.fdf # for transiesta calculation
#(4) DFT, Grid, SCF
XC.functional         GGA           # LDA or GGA (default = LDA)
XC.authors            PBE           # CA (Ceperley-Aldr) = PZ
                                    #    (Perdew-Zunger) - LDA - Default
                                    # PW92 (Perdew-Wang-92) - LDA
                                    # PBE (Perdew-Burke-Ernzerhof) - GGA
MeshCutoff            200.000000    Ry      # Default: 50.0 Ry ~ 0.444 Bohr
                                    #         100.0 Ry ~ 0.314 Bohr
MaxSCFIterations      500           # Default: 50
DM.MixingWeight       0.05          # Default: 0.25
DM.NumberPulay        10            # Default: 0
DM.PulayOnFile        F             # SystemLabel.P1, SystemLabel.P2
DM.Tolerance          1.d-4         # Default: 1.d-4
DM.UseSaveDM          .true.        # because of the bug
SCFMustConverge       .true.
NeglNonOverlapInt     F             # Default: F
#(5) Eigenvalue problem: order-N or diagonalization
SolutionMethod        Diagon        # or Transiesta
ElectronicTemperature 300.0 K       # Default: 300.0 K
#(6) Molecular dynamics and relaxations
#MD.TypeOfRun          CG            # Type of dynamics:
#MD.VariableCell       F
#MD.NumCGsteps         0           # 0 for single-point / 100 for gopt
#MD.MaxCGDispl         0.2 Bohr      # Default: 0.2 Bohr
#MD.MaxForceTol        0.02 eV/Ang   # Default: 0.04 eV/Ang
#MD.MaxStressTol       1.0 GPa       # Default: 1.0 GPa
# Geometry Constraints
#%block GeometryConstraints
#	position from 1 to 44
#%endblock GeometryConstraints
************************** End of input data file *****************************

reinit: -----------------------------------------------------------------------
reinit: System Name: GRP_doping
reinit: -----------------------------------------------------------------------
reinit: System Label: GRP_doping                                                  
reinit: -----------------------------------------------------------------------

initatom: Reading input for the pseudopotentials and atomic orbitals ----------
 Species number:            1  Label: N Atomic number:           7
 Species number:            2  Label: C Atomic number:           6
Ground state valence configuration:   2s02  2p03
Reading pseudopotential information in formatted form from N.psf

Valence configuration for pseudopotential generation:
2s( 2.00) rc: 1.48
2p( 3.00) rc: 1.48
3d( 0.00) rc: 1.48
4f( 0.00) rc: 1.48
Ground state valence configuration:   2s02  2p02
Reading pseudopotential information in formatted form from C.psf

Valence configuration for pseudopotential generation:
2s( 2.00) rc: 1.54
2p( 2.00) rc: 1.54
3d( 0.00) rc: 1.54
4f( 0.00) rc: 1.54
For N, standard SIESTA heuristics set lmxkb to 3
 (one more than the basis l, including polarization orbitals).
Use PS.lmax or PS.KBprojectors blocks to override.
For C, standard SIESTA heuristics set lmxkb to 3
 (one more than the basis l, including polarization orbitals).
Use PS.lmax or PS.KBprojectors blocks to override.

<basis_specs>
===============================================================================
N                    Z=   7    Mass=  14.010        Charge= 0.17977+309
Lmxo=1 Lmxkb= 3    BasisType=split      Semic=F
L=0  Nsemic=0  Cnfigmx=2
          n=1  nzeta=2  polorb=0
            splnorm:   0.15000    
               vcte:    0.0000    
               rinn:    0.0000    
                rcs:    0.0000      0.0000    
            lambdas:    1.0000      1.0000    
L=1  Nsemic=0  Cnfigmx=2
          n=1  nzeta=2  polorb=1
            splnorm:   0.15000    
               vcte:    0.0000    
               rinn:    0.0000    
                rcs:    0.0000      0.0000    
            lambdas:    1.0000      1.0000    
-------------------------------------------------------------------------------
L=0  Nkbl=1  erefs: 0.17977+309
L=1  Nkbl=1  erefs: 0.17977+309
L=2  Nkbl=1  erefs: 0.17977+309
L=3  Nkbl=1  erefs: 0.17977+309
===============================================================================
</basis_specs>

atom: Called for N                     (Z =   7)

read_vps: Pseudopotential generation method:
read_vps: ATM3      Troullier-Martins                       
Total valence charge:    5.00000

read_vps: Pseudopotential includes a core correction:
read_vps: Pseudo-core for xc-correction

xc_check: Exchange-correlation functional:
xc_check: GGA Perdew, Burke & Ernzerhof 1996
V l=0 = -2*Zval/r beyond r=  1.4606
V l=1 = -2*Zval/r beyond r=  1.4606
V l=2 = -2*Zval/r beyond r=  1.4606
V l=3 = -2*Zval/r beyond r=  1.4606
All V_l potentials equal beyond r=  1.4606
This should be close to max(r_c) in ps generation
All pots = -2*Zval/r beyond r=  1.4606

VLOCAL1: 99.0% of the norm of Vloc inside     20.347 Ry
VLOCAL1: 99.9% of the norm of Vloc inside     46.372 Ry
atom: Maximum radius for 4*pi*r*r*local-pseudopot. charge    1.76189
atom: Maximum radius for r*vlocal+2*Zval:    1.53550
GHOST: No ghost state for L =  0
GHOST: No ghost state for L =  1
GHOST: No ghost state for L =  2
GHOST: No ghost state for L =  3

KBgen: Kleinman-Bylander projectors: 
   l= 0   rc=  1.634559   el= -1.363963   Ekb=  5.296955   kbcos=  0.335621
   l= 1   rc=  1.614250   el= -0.521451   Ekb= -5.259161   kbcos= -0.433408
   l= 2   rc=  1.718383   el=  0.001991   Ekb= -1.271464   kbcos= -0.007566
   l= 3   rc=  1.761893   el=  0.003093   Ekb= -0.494769   kbcos= -0.001015

KBgen: Total number of  Kleinman-Bylander projectors:   16
atom: -------------------------------------------------------------------------

atom: SANKEY-TYPE ORBITALS:
atom: Selected multiple-zeta basis: split     

SPLIT: Orbitals with angular momentum L= 0

SPLIT: Basis orbitals for state 2s

SPLIT: PAO cut-off radius determined from an
SPLIT: energy shift=  0.007350 Ry

   izeta = 1
                 lambda =    1.000000
                     rc =    4.071465
                 energy =   -1.356470
                kinetic =    1.176977
    potential(screened) =   -2.533447
       potential(ionic) =   -8.057990

   izeta = 2
                 rmatch =    2.905100
              splitnorm =    0.150000
                 energy =   -1.158343
                kinetic =    1.813009
    potential(screened) =   -2.971352
       potential(ionic) =   -8.901931

SPLIT: Orbitals with angular momentum L= 1

SPLIT: Basis orbitals for state 2p

SPLIT: PAO cut-off radius determined from an
SPLIT: energy shift=  0.007350 Ry

   izeta = 1
                 lambda =    1.000000
                     rc =    4.972977
                 energy =   -0.513884
                kinetic =    3.441732
    potential(screened) =   -3.955616
       potential(ionic) =   -9.287901

   izeta = 2
                 rmatch =    3.054066
              splitnorm =    0.150000
                 energy =   -0.318226
                kinetic =    5.125348
    potential(screened) =   -5.443573
       potential(ionic) =  -11.380999

POLgen: Perturbative polarization orbital with L=  2

POLgen: Polarization orbital for state 2p

   izeta = 1
                     rc =    4.972977
                 energy =    1.607437
                kinetic =    3.268125
    potential(screened) =   -1.660688
       potential(ionic) =   -5.973652
atom: Total number of Sankey-type orbitals: 13

atm_pop: Valence configuration (for local Pseudopot. screening):
 2s( 2.00)                                                            
 2p( 3.00)                                                            
Vna: chval, zval:    5.00000   5.00000

Vna:  Cut-off radius for the neutral-atom potential:   4.972977
comcore: Pseudo-core radius Rcore=  1.554824

atom: _________________________________________________________________________

<basis_specs>
===============================================================================
C                    Z=   6    Mass=  12.010        Charge= 0.17977+309
Lmxo=1 Lmxkb= 3    BasisType=split      Semic=F
L=0  Nsemic=0  Cnfigmx=2
          n=1  nzeta=2  polorb=0
            splnorm:   0.15000    
               vcte:    0.0000    
               rinn:    0.0000    
                rcs:    0.0000      0.0000    
            lambdas:    1.0000      1.0000    
L=1  Nsemic=0  Cnfigmx=2
          n=1  nzeta=2  polorb=1
            splnorm:   0.15000    
               vcte:    0.0000    
               rinn:    0.0000    
                rcs:    0.0000      0.0000    
            lambdas:    1.0000      1.0000    
-------------------------------------------------------------------------------
L=0  Nkbl=1  erefs: 0.17977+309
L=1  Nkbl=1  erefs: 0.17977+309
L=2  Nkbl=1  erefs: 0.17977+309
L=3  Nkbl=1  erefs: 0.17977+309
===============================================================================
</basis_specs>

atom: Called for C                     (Z =   6)

read_vps: Pseudopotential generation method:
read_vps: ATM3      Troullier-Martins                       
Total valence charge:    4.00000

read_vps: Pseudopotential includes a core correction:
read_vps: Pseudo-core for xc-correction

xc_check: Exchange-correlation functional:
xc_check: GGA Perdew, Burke & Ernzerhof 1996
V l=0 = -2*Zval/r beyond r=  1.5227
V l=1 = -2*Zval/r beyond r=  1.5227
V l=2 = -2*Zval/r beyond r=  1.5227
V l=3 = -2*Zval/r beyond r=  1.5038
All V_l potentials equal beyond r=  1.5227
This should be close to max(r_c) in ps generation
All pots = -2*Zval/r beyond r=  1.5227

VLOCAL1: 99.0% of the norm of Vloc inside     18.722 Ry
VLOCAL1: 99.9% of the norm of Vloc inside     42.668 Ry
atom: Maximum radius for 4*pi*r*r*local-pseudopot. charge    1.83678
atom: Maximum radius for r*vlocal+2*Zval:    1.58088
GHOST: No ghost state for L =  0
GHOST: No ghost state for L =  1
GHOST: No ghost state for L =  2
GHOST: No ghost state for L =  3

KBgen: Kleinman-Bylander projectors: 
   l= 0   rc=  1.704034   el= -1.009801   Ekb=  5.335044   kbcos=  0.316824
   l= 1   rc=  1.704034   el= -0.388707   Ekb= -3.785862   kbcos= -0.366464
   l= 2   rc=  1.791422   el=  0.001971   Ekb= -0.970471   kbcos= -0.009212
   l= 3   rc=  1.859892   el=  0.003065   Ekb= -0.399525   kbcos= -0.001223

KBgen: Total number of  Kleinman-Bylander projectors:   16
atom: -------------------------------------------------------------------------

atom: SANKEY-TYPE ORBITALS:
atom: Selected multiple-zeta basis: split     

SPLIT: Orbitals with angular momentum L= 0

SPLIT: Basis orbitals for state 2s

SPLIT: PAO cut-off radius determined from an
SPLIT: energy shift=  0.007350 Ry

   izeta = 1
                 lambda =    1.000000
                     rc =    4.632753
                 energy =   -1.002270
                kinetic =    0.855760
    potential(screened) =   -1.858031
       potential(ionic) =   -5.417575

   izeta = 2
                 rmatch =    3.431921
              splitnorm =    0.150000
                 energy =   -0.867111
                kinetic =    1.300804
    potential(screened) =   -2.167915
       potential(ionic) =   -5.962684

SPLIT: Orbitals with angular momentum L= 1

SPLIT: Basis orbitals for state 2p

SPLIT: PAO cut-off radius determined from an
SPLIT: energy shift=  0.007350 Ry

   izeta = 1
                 lambda =    1.000000
                     rc =    5.658549
                 energy =   -0.381140
                kinetic =    2.399701
    potential(screened) =   -2.780841
       potential(ionic) =   -6.206085

   izeta = 2
                 rmatch =    3.653288
              splitnorm =    0.150000
                 energy =   -0.249149
                kinetic =    3.542762
    potential(screened) =   -3.791911
       potential(ionic) =   -7.581078

POLgen: Perturbative polarization orbital with L=  2

POLgen: Polarization orbital for state 2p

   izeta = 1
                     rc =    5.658549
                 energy =    1.109913
                kinetic =    2.304789
    potential(screened) =   -1.194876
       potential(ionic) =   -4.013592
atom: Total number of Sankey-type orbitals: 13

atm_pop: Valence configuration (for local Pseudopot. screening):
 2s( 2.00)                                                            
 2p( 2.00)                                                            
Vna: chval, zval:    4.00000   4.00000

Vna:  Cut-off radius for the neutral-atom potential:   5.658549
comcore: Pseudo-core radius Rcore=  1.791422

atom: _________________________________________________________________________

prinput: Basis input ----------------------------------------------------------

PAO.BasisType split     

%block ChemicalSpeciesLabel
    1    7 N                       # Species index, atomic number, species label
    2    6 C                       # Species index, atomic number, species label
%endblock ChemicalSpeciesLabel

%block PAO.Basis                 # Define Basis set
N                     2                    # Species label, number of l-shells
 n=2   0   2                         # n, l, Nzeta 
   4.071      2.905   
   1.000      1.000   
 n=2   1   2 P   1                   # n, l, Nzeta, Polarization, NzetaPol
   4.973      3.054   
   1.000      1.000   
C                     2                    # Species label, number of l-shells
 n=2   0   2                         # n, l, Nzeta 
   4.633      3.432   
   1.000      1.000   
 n=2   1   2 P   1                   # n, l, Nzeta, Polarization, NzetaPol
   5.659      3.653   
   1.000      1.000   
%endblock PAO.Basis

prinput: ----------------------------------------------------------------------

coor:   Atomic-coordinates input format  =     Cartesian coordinates
coor:                                          (in Angstroms)

siesta: Atomic coordinates (Bohr) and species
siesta:      2.23554   1.32097   0.00000  1        1
siesta:     37.15930  18.79590   0.00000  1        2
siesta:     11.54782   1.32097   0.00000  1        3
siesta:     20.86199   1.32097   0.00000  1        4
siesta:      6.89205   9.38661   0.00000  1        5
siesta:     16.20434   9.38661   0.00000  1        6
siesta:     11.54857  17.45226   0.00000  1        7
siesta:     25.51851   9.38661   0.00000  1        8
siesta:     20.86274  17.45226   0.00000  1        9
siesta:      4.56367   2.66461   0.00000  2       10
siesta:     32.50328  21.48508   0.00000  2       11
siesta:     34.83141  22.82873   0.00000  2       12
siesta:     34.83116  17.45226   0.00000  2       13
siesta:     32.50291  13.41944   0.00000  2       14
siesta:     34.83104  14.76308   0.00000  2       15
siesta:     30.17465   9.38661   0.00000  2       16
siesta:     32.50278  10.73026   0.00000  2       17
siesta:     27.84639   5.35379   0.00000  2       18
siesta:     30.17453   6.69743   0.00000  2       19
siesta:     27.84714  21.48508   0.00000  2       20
siesta:     30.17527  22.82873   0.00000  2       21
siesta:      6.89168   1.32097   0.00000  2       22
siesta:      9.21981   2.66461   0.00000  2       23
siesta:     13.87595   2.66461   0.00000  2       24
siesta:     16.20396   1.32097   0.00000  2       25
siesta:     18.53210   2.66461   0.00000  2       26
siesta:     23.19013   2.66461   0.00000  2       27
siesta:     25.51813   1.32097   0.00000  2       28
siesta:     27.84627   2.66461   0.00000  2       29
siesta:      4.56380   5.35379   0.00000  2       30
siesta:      6.89193   6.69743   0.00000  2       31
siesta:      9.21994   5.35379   0.00000  2       32
siesta:     11.54807   6.69743   0.00000  2       33
siesta:     13.87608   5.35379   0.00000  2       34
siesta:     16.20421   6.69743   0.00000  2       35
siesta:     18.53411   5.35379   0.00000  2       36
siesta:     20.86224   6.69743   0.00000  2       37
siesta:     23.19025   5.35379   0.00000  2       38
siesta:     25.51838   6.69743   0.00000  2       39
siesta:      9.22019  10.73026   0.00000  2       40
siesta:     11.54820   9.38661   0.00000  2       41
siesta:     13.87633  10.73026   0.00000  2       42
siesta:     18.53247  10.73026   0.00000  2       43
siesta:     20.86237   9.38661   0.00000  2       44
siesta:     23.19050  10.73026   0.00000  2       45
siesta:      9.22031  13.41944   0.00000  2       46
siesta:     11.54845  14.76308   0.00000  2       47
siesta:     13.87645  13.41944   0.00000  2       48
siesta:     16.20459  14.76308   0.00000  2       49
siesta:     18.53448  13.41944   0.00000  2       50
siesta:     20.86262  14.76308   0.00000  2       51
siesta:     13.87670  18.79590   0.00000  2       52
siesta:     16.20471  17.45226   0.00000  2       53
siesta:     18.53284  18.79590   0.00000  2       54
siesta:     13.87683  21.48508   0.00000  2       55
siesta:     16.20496  22.82873   0.00000  2       56
siesta:     18.53486  21.48508   0.00000  2       57
siesta:     20.86299  22.82873   0.00000  2       58
siesta:     27.84664  10.73026   0.00000  2       59
siesta:     23.19063  13.41944   0.00000  2       60
siesta:     25.51876  14.76308   0.00000  2       61
siesta:     23.19088  18.79590   0.00000  2       62
siesta:     27.84677  13.41944   0.00000  2       63
siesta:     30.17490  14.76308   0.00000  2       64
siesta:     25.51888  17.45226   0.00000  2       65
siesta:     27.84702  18.79590   0.00000  2       66
siesta:     23.19100  21.48508   0.00000  2       67
siesta:     25.51913  22.82873   0.00000  2       68
siesta:     30.17503  17.45226   0.00000  2       69
siesta:     32.50316  18.79590   0.00000  2       70
siesta:     37.16131  21.48508   0.00000  2       71
siesta:     39.48945  22.82873   0.00000  2       72

siesta: System type = slab      

initatomlists: Number of atoms, orbitals, and projectors:     72   936  1152

siesta: ******************** Simulation parameters ****************************
siesta:
siesta: The following are some of the parameters of the simulation.
siesta: A complete list of the parameters used, including default values,
siesta: can be found in file out.fdf
siesta:
redata: Non-Collinear-spin run           =     F
redata: SpinPolarized (Up/Down) run      =     F
redata: Number of spin components        =     1
redata: Long output                      =     F
redata: Number of Atomic Species         =        2
redata: Charge density info will appear in .RHO file
redata: Write Mulliken Pop.              =     NO
redata: Mesh Cutoff                      =   200.0000  Ry
redata: Net charge of the system         =     0.0000 |e|
redata: Max. number of SCF Iter          =      500
redata: SCF convergence failure will abort job
redata: Performing Pulay mixing using    =    10 iterations
redata: Mix DM in first SCF step ?       =     F
redata: Write Pulay info on disk?        =     F
redata: Discard 1st Pulay DM after  kick =     F
redata: New DM Mixing Weight             =     0.0500
redata: New DM Occupancy tolerance       = 0.000000000001
redata: No kicks to SCF
redata: DM Mixing Weight for Kicks       =     0.5000
redata: DM Tolerance for SCF             =     0.000100
redata: Require Energy convergence for SCF =     F
redata: DM Energy tolerance for SCF      =     0.000100 eV
redata: Require Harris convergence for SCF =     F
redata: DM Harris energy tolerance for SCF =     0.000100 eV
redata: Using Saved Data (generic)   =     F
redata: Use continuation files for DM    =     T
redata: Neglect nonoverlap interactions  =     F
redata: Method of Calculation            =     Diagonalization
redata: Divide and Conquer               =     T
redata: Electronic Temperature           =     0.0019  Ry
redata: Fix the spin of the system       =     F
redata: Dynamics option                  =     Verlet MD run
redata: Initial MD time step             =        1
redata:   Final MD time step             =        1
redata: Length of MD time step           =     1.0000  fs
redata: Initial Temperature of MD run    =     0.0000  K
redata: Perform a MD quench              =     F
redata: ***********************************************************************
Total number of electrons:   297.000000
Total ionic charge:   297.000000

* ProcessorY, Blocksize:    2  24

k-point displ. along   1 input, could be:     0.00    0.50
k-point displ. along   2 input, could be:     0.00    0.50
 Kpoints in:          364 . Kpoints trimmed:          352

siesta: k-grid: Number of k-points =   352
siesta: k-grid: Cutoff (effective) =     5.000 Ang
siesta: k-grid: Supercell and displacements
siesta: k-grid:   26   0   0      0.000
siesta: k-grid:    0  26   0      0.000
siesta: k-grid:    0   0   1      0.000
Naive supercell factors:     2    2    2

superc: Internal auxiliary supercell:     2 x     2 x     2  =       8
superc: Number of atoms, orbitals, and projectors:    576   7488   9216

* Maximum dynamic memory allocated =     6 MB

siesta:                 ==============================
                            Begin MD step =      1
                        ==============================

superc: Internal auxiliary supercell:     2 x     2 x     2  =       8
superc: Number of atoms, orbitals, and projectors:    576   7488   9216

outcell: Unit cell vectors (Ang):
       14.785000    0.000000    0.000000
        7.393000   12.805052    0.000000
        0.000000    0.000000   10.000000

outcell: Cell vector modules (Ang)   :   14.785000   14.786000   10.000000
outcell: Cell angles (23,13,12) (deg):     90.0000     90.0000     60.0000
outcell: Cell volume (Ang**3)        :   1893.2269
New_DM. Step:     1
Initializing Density Matrix...

iodm: Reading Density Matrix from files
 Read DM has different structure. Fixing...

InitMesh: MESH =   120 x   120 x    90 =     1296000
InitMesh: Mesh cutoff (required, used) =   200.000   223.865 Ry

* Maximum dynamic memory allocated =   187 MB

stepf: Fermi-Dirac step function

siesta: Program's energy decomposition (eV):
siesta: Ebs     =     -4407.605381
siesta: Eions   =     19849.732669
siesta: Ena     =      4064.293415
siesta: Ekin    =      8471.380403
siesta: Enl     =      -988.143916
siesta: DEna    =      -306.174528
siesta: DUscf   =       182.882250
siesta: DUext   =         0.000000
siesta: Exc     =     -4275.266551
siesta: eta*DQ  =         0.000000
siesta: Emadel  =         0.000000
siesta: Emeta   =         0.000000
siesta: Emolmec =         0.000000
siesta: Ekinion =         0.000000
siesta: Eharris =    -13233.371990
siesta: Etot    =    -12700.761596
siesta: FreeEng =    -12700.761596

siesta: iscf   Eharris(eV)      E_KS(eV)   FreeEng(eV)   dDmax  Ef(eV)
siesta:    1   -13233.3720   -12700.7616   -12700.7616  3.6471 -2.6891
timer: Routine,Calls,Time,% = IterSCF        1    6572.274  99.81
elaps: Routine,Calls,Wall,% = IterSCF        1     822.554  99.80
siesta:    2   -29636.1848    -9642.3353    -9642.3713137.0161-22.7470
siesta:    3   -12970.5260   -12718.0405   -12718.0789  0.8560 -3.0076
siesta:    4   -12901.6296   -12728.0557   -12728.0950  0.6973 -3.0392
siesta:    5   -12791.0453   -12741.2802   -12741.3145  0.6405 -3.0098
siesta:    6   -12762.1334   -12743.0139   -12743.0367  0.6508 -3.0242
siesta:    7   -12742.7776   -12739.3763   -12739.4219  0.4187 -3.0405
siesta:    8   -12740.9898   -12738.0883   -12738.1328  0.4217 -3.1190
siesta:    9   -12741.3149   -12736.6317   -12736.6699  0.3371 -3.3086
siesta:   10   -12741.4112   -12736.2609   -12736.2942  0.1217 -3.5068
siesta:   11   -12739.9114   -12736.6512   -12736.6932  0.0779 -3.5685
siesta:   12   -12739.1467   -12736.9999   -12737.0468  0.1179 -3.5604
siesta:   13   -12739.0618   -12737.2320   -12737.2819  0.0928 -3.5424
siesta:   14   -12739.0166   -12737.5605   -12737.6102  0.0674 -3.4968
siesta:   15   -12738.9941   -12737.9710   -12738.0201  0.0315 -3.4630
siesta:   16   -12738.9807   -12738.2760   -12738.3249  0.0223 -3.4517
siesta:   17   -12738.9519   -12738.4488   -12738.4988  0.0102 -3.4359
siesta:   18   -12738.9479   -12738.4838   -12738.5338  0.0112 -3.4314
siesta:   19   -12738.9455   -12738.6301   -12738.6800  0.0042 -3.4310
siesta:   20   -12738.9451   -12738.7166   -12738.7663  0.0029 -3.4309
siesta:   21   -12738.9449   -12738.8107   -12738.8604  0.0017 -3.4315
siesta:   22   -12738.9450   -12738.8502   -12738.9000  0.0016 -3.4328
siesta:   23   -12738.9449   -12738.8733   -12738.9231  0.0013 -3.4336
siesta:   24   -12738.9447   -12738.9308   -12738.9806  0.0005 -3.4339
siesta:   25   -12738.9446   -12738.9358   -12738.9855  0.0003 -3.4341
siesta:   26   -12738.9446   -12738.9379   -12738.9876  0.0003 -3.4342
siesta:   27   -12738.9446   -12738.9409   -12738.9907  0.0002 -3.4341
siesta:   28   -12738.9446   -12738.9419   -12738.9917  0.0002 -3.4340
siesta:   29   -12738.9446   -12738.9429   -12738.9926  0.0002 -3.4340
siesta:   30   -12738.9446   -12738.9440   -12738.9938  0.0001 -3.4339
siesta:   31   -12738.9446   -12738.9436   -12738.9934  0.0001 -3.4339

siesta: E_KS(eV) =           -12738.9437

siesta: E_KS - E_eggbox =    -12738.9437

siesta: Atomic forces (eV/Ang):
----------------------------------------
   Tot    0.209997   -0.301428    0.000000
----------------------------------------
   Max    1.272958
   Res    0.283241    sqrt( Sum f_i^2 / 3N )
----------------------------------------
   Max    1.272958    constrained

Stress-tensor-Voigt (kbar):       -0.79        0.56        0.14        0.36        0.00        0.00
(Free)E + p*V (eV/cell)   -12738.9596
Target enthalpy (eV/cell)   -12738.9935

siesta: Stress tensor (static) (eV/Ang**3):
        -0.000496    0.000223    0.000000
         0.000223    0.000352    0.000000
         0.000000    0.000000    0.000090

siesta: Pressure (static):          0.02868849  kBar

siesta: Stress tensor (total) (eV/Ang**3):
        -0.000496    0.000223    0.000000
         0.000223    0.000352    0.000000
         0.000000    0.000000    0.000090

siesta: Pressure (total):          0.02868849  kBar

siesta: Temp_ion =       0.000 K

* Maximum dynamic memory allocated =   203 MB

siesta: Program's energy decomposition (eV):
siesta: Ebs     =     -4185.314702
siesta: Eions   =     19849.732669
siesta: Ena     =      4064.293415
siesta: Ekin    =      8580.154352
siesta: Enl     =     -1058.457276
siesta: DEna    =      -247.574710
siesta: DUscf   =        22.680893
siesta: DUext   =         0.000000
siesta: Exc     =     -4250.307740
siesta: eta*DQ  =         0.000000
siesta: Emadel  =         0.000000
siesta: Emeta   =         0.000000
siesta: Emolmec =         0.000000
siesta: Ekinion =         0.000000
siesta: Eharris =    -12738.944604
siesta: Etot    =    -12738.943735
siesta: FreeEng =    -12738.993505

siesta: Final energy (eV):
siesta:  Band Struct. =   -4185.314702
siesta:       Kinetic =    8580.154352
siesta:       Hartree =   24802.178242
siesta:    Ext. field =       0.000000
siesta:   Exch.-corr. =   -4250.307740
siesta:  Ion-electron =  -57581.136233
siesta:       Ion-ion =   15710.167645
siesta:       Ekinion =       0.000000
siesta:         Total =  -12738.943735

siesta: Atomic forces (eV/Ang):
siesta:      1    0.306401   -0.170465    0.000000
siesta:      2   -0.837673    0.521230    0.000000
siesta:      3   -0.040365   -0.015185    0.000000
siesta:      4    0.070925   -0.092114    0.000000
siesta:      5    0.193196   -0.129696    0.000000
siesta:      6   -0.019363   -0.005608    0.000000
siesta:      7    0.802339   -0.431057    0.000000
siesta:      8    0.066454   -0.005952    0.000000
siesta:      9    0.015072    0.053659    0.000000
siesta:     10   -0.387101   -0.194295    0.000000
siesta:     11   -0.486315    0.789786    0.000000
siesta:     12    0.304130    0.173357    0.000000
siesta:     13    0.734013   -0.796892    0.000000
siesta:     14    0.449879   -0.253113    0.000000
siesta:     15   -0.393138    1.272958    0.000000
siesta:     16    0.003198   -0.312443    0.000000
siesta:     17    0.398141    0.025782    0.000000
siesta:     18    0.351996    0.194435    0.000000
siesta:     19   -0.139835    0.004857    0.000000
siesta:     20    0.008529    0.601410    0.000000
siesta:     21    0.319980   -0.688339    0.000000
siesta:     22    0.046363   -0.351141    0.000000
siesta:     23    0.295351   -0.136458    0.000000
siesta:     24   -0.181158   -0.453039    0.000000
siesta:     25   -0.016824    0.218110    0.000000
siesta:     26    0.205849   -0.418106    0.000000
siesta:     27   -0.182162   -0.040871    0.000000
siesta:     28   -0.089021   -0.241007    0.000000
siesta:     29    0.064730   -0.185671    0.000000
siesta:     30   -0.178832    0.134833    0.000000
siesta:     31    0.017039    0.277650    0.000000
siesta:     32    0.248669    0.148307    0.000000
siesta:     33   -0.019650    0.051853    0.000000
siesta:     34   -0.178736    0.343662    0.000000
siesta:     35   -0.043924    0.084771    0.000000
siesta:     36    0.232527    0.296221    0.000000
siesta:     37   -0.030403    0.045439    0.000000
siesta:     38   -0.290730    0.067252    0.000000
siesta:     39    0.022711    0.356736    0.000000
siesta:     40   -0.575062    0.232501    0.000000
siesta:     41    0.256821   -0.446478    0.000000
siesta:     42    0.005952   -0.052784    0.000000
siesta:     43    0.000029   -0.070144    0.000000
siesta:     44   -0.230204   -0.381416    0.000000
siesta:     45    0.482127   -0.008460    0.000000
siesta:     46    0.656203   -0.405517    0.000000
siesta:     47   -0.830011    0.237828    0.000000
siesta:     48    0.343044    0.143831    0.000000
siesta:     49    0.164841   -0.091309    0.000000
siesta:     50   -0.536925    0.082954    0.000000
siesta:     51    0.271429    0.353458    0.000000
siesta:     52   -0.447053    0.349804    0.000000
siesta:     53   -0.126347   -0.331333    0.000000
siesta:     54    0.239462   -0.163475    0.000000
siesta:     55    0.222752   -0.105374    0.000000
siesta:     56   -0.222499    0.400264    0.000000
siesta:     57    0.449615    0.201862    0.000000
siesta:     58   -0.195641    0.024583    0.000000
siesta:     59   -0.514373   -0.288970    0.000000
siesta:     60   -0.092214   -0.021092    0.000000
siesta:     61    0.422573    0.241834    0.000000
siesta:     62   -0.519255   -0.280755    0.000000
siesta:     63   -0.587054   -0.171923    0.000000
siesta:     64   -0.021013   -0.197444    0.000000
siesta:     65   -0.394986   -0.453219    0.000000
siesta:     66   -0.172689    0.132247    0.000000
siesta:     67   -0.193755    0.096418    0.000000
siesta:     68    0.115531    0.524484    0.000000
siesta:     69    0.064440   -0.218745    0.000000
siesta:     70    0.698321    0.103909    0.000000
siesta:     71    0.579652   -0.000038    0.000000
siesta:     72   -0.745977   -0.479791    0.000000
siesta: ----------------------------------------
siesta:    Tot    0.209997   -0.301428    0.000000

siesta: Stress tensor (static) (eV/Ang**3):
siesta:    -0.000496    0.000223    0.000000
siesta:     0.000223    0.000352    0.000000
siesta:     0.000000    0.000000    0.000090

siesta: Cell volume =       1893.226895 Ang**3

siesta: Pressure (static):
siesta:                Solid            Molecule  Units
siesta:           0.00000020         -0.00001378  Ry/Bohr**3
siesta:           0.00001791         -0.00126483  eV/Ang**3
siesta:           0.02868849         -2.02649911  kBar
(Free)E+ p_basis*V_orbitals  =      -12709.542559
(Free)Eharris+ p_basis*V_orbitals  =      -12709.543555

siesta: Electric dipole (a.u.)  =    0.000000    0.000000    0.000000
siesta: Electric dipole (Debye) =    0.000000    0.000000    0.000000

* Maximum dynamic memory allocated : Node    0 =   203 MB
* Maximum dynamic memory allocated : Node    1 =    74 MB
* Maximum dynamic memory allocated : Node    2 =    76 MB
* Maximum dynamic memory allocated : Node    3 =   193 MB
* Maximum dynamic memory allocated : Node    4 =   203 MB
* Maximum dynamic memory allocated : Node    5 =    74 MB
* Maximum dynamic memory allocated : Node    6 =    76 MB
* Maximum dynamic memory allocated : Node    7 =   187 MB

* Maximum memory occured during matrixMtoO                    

timer: CPU execution times:
timer:  Routine       Calls   Time/call    Tot.time        %
timer:  siesta            1  201869.380  201869.380   100.00
timer:  Setup             1       3.809       3.809     0.00
timer:  bands             1       0.016       0.016     0.00
timer:  writewave         1       0.038       0.038     0.00
timer:  KSV_init          1       0.008       0.008     0.00
timer:  IterMD            1  201857.631  201857.631    99.99
timer:  hsparse           1       0.257       0.257     0.00
timer:  overlap           1       6.332       6.332     0.00
timer:  IterSCF          31    6506.167  201691.176    99.91
timer:  kinefsm           2       3.266       6.531     0.00
timer:  nlefsm            2      18.878      37.757     0.02
timer:  DHSCF            32      88.211    2822.742     1.40
timer:  DHSCF1            1       0.770       0.770     0.00
timer:  DHSCF2            1      32.779      32.779     0.02
timer:  REORD           258       0.010       2.569     0.00
timer:  POISON           33       2.239      73.882     0.04
timer:  DHSCF3           32      86.148    2756.745     1.37
timer:  rhoofd           32      16.190     518.089     0.26
timer:  cellXC           32       3.484     111.489     0.06
timer:  vmat             32      43.595    1395.041     0.69
timer:  MolMec            2       0.000       0.000     0.00
timer:  diagon           31    6416.264  198904.173    98.53
timer:  c-eigval      10912       6.678   72867.906    36.10
timer:  c-buildHS     10912       0.117    1280.203     0.63
timer:  cdiag         21824       6.837  149206.743    73.91
timer:  cdiag1        21824       0.427    9328.799     4.62
timer:  cdiag2        21824       1.903   41531.612    20.57
timer:  cdiag3        21824       3.955   86308.354    42.75
timer:  cdiag4        21824       0.203    4437.598     2.20
timer:  c-eigvec      10912       7.186   78412.153    38.84
timer:  c-buildD      10912       4.356   47532.069    23.55
timer:  DHSCF4            1      30.734      30.734     0.02
timer:  dfscf             1      28.912      28.912     0.01
timer:  overfsm           1       0.379       0.379     0.00
timer:  optical           1       6.988       6.988     0.00
  

elaps: ELAPSED times:
elaps:  Routine       Calls   Time/call    Tot.time        %
elaps:  siesta            1   25261.821   25261.821   100.00
elaps:  Setup             1       0.492       0.492     0.00
elaps:  bands             1       0.002       0.002     0.00
elaps:  writewave         1       0.006       0.006     0.00
elaps:  KSV_init          1       0.001       0.001     0.00
elaps:  IterMD            1   25260.327   25260.327    99.99
elaps:  hsparse           1       0.031       0.031     0.00
elaps:  overlap           1       0.965       0.965     0.00
elaps:  IterSCF          31     814.181   25239.623    99.91
elaps:  kinefsm           2       0.495       0.989     0.00
elaps:  nlefsm            2       2.328       4.656     0.02
elaps:  DHSCF            32      11.136     356.354     1.41
elaps:  DHSCF1            1       0.101       0.101     0.00
elaps:  DHSCF2            1       4.099       4.099     0.02
elaps:  REORD           258       0.001       0.352     0.00
elaps:  POISON           33       0.279       9.212     0.04
elaps:  DHSCF3           32      10.777     344.866     1.37
elaps:  rhoofd           32       3.553     113.705     0.45
elaps:  cellXC           32       0.435      13.921     0.06
elaps:  vmat             32       5.453     174.511     0.69
elaps:  MolMec            2       0.000       0.000     0.00
elaps:  diagon           31     802.939   24891.103    98.53
elaps:  c-eigval      10912       0.835    9116.936    36.09
elaps:  c-buildHS     10912       0.016     173.207     0.69
elaps:  cdiag         21824       0.845   18449.811    73.03
elaps:  cdiag1        21824       0.053    1155.244     4.57
elaps:  cdiag2        21824       0.238    5196.667    20.57
elaps:  cdiag3        21824       0.495   10812.788    42.80
elaps:  cdiag4        21824       0.026     560.596     2.22
elaps:  c-eigvec      10912       0.883    9629.899    38.12
elaps:  c-buildD      10912       0.562    6131.488    24.27
elaps:  DHSCF4            1       7.058       7.058     0.03
elaps:  dfscf             1       6.684       6.684     0.03
elaps:  overfsm           1       0.048       0.048     0.00
elaps:  optical           1       0.001       0.001     0.00
  
>> End of run:  29-NOV-2015   7:55:55
