Siesta Version:                                        siesta-3.2-pl-3
Architecture  : x86_64-unknown-linux-gnu--unknown
Compiler flags: mpiifort -g -O2 -fPIC -xSSE4.1 -fp-model source -shared-intel 
PARALLEL version

* Running on    8 nodes in parallel
>> Start of run:   1-DEC-2015   5:01:45

                           ***********************       
                           *  WELCOME TO SIESTA  *       
                           ***********************       

reinit: Reading from standard input
************************** Dump of input data file ****************************
#(1) General system descriptors
SystemName            GRP_doping    # Descriptive name of the system
SystemLabel           GRP_doping    # Short name for naming files
%include STRUCT.fdf
%include KPT.fdf
%include BASIS.fdf
#%include TS.fdf # for transiesta calculation
#(4) DFT, Grid, SCF
XC.functional         GGA           # LDA or GGA (default = LDA)
XC.authors            PBE           # CA (Ceperley-Aldr) = PZ
                                    #    (Perdew-Zunger) - LDA - Default
                                    # PW92 (Perdew-Wang-92) - LDA
                                    # PBE (Perdew-Burke-Ernzerhof) - GGA
MeshCutoff            200.000000    Ry      # Default: 50.0 Ry ~ 0.444 Bohr
                                    #         100.0 Ry ~ 0.314 Bohr
MaxSCFIterations      500           # Default: 50
DM.MixingWeight       0.05          # Default: 0.25
DM.NumberPulay        10            # Default: 0
DM.PulayOnFile        F             # SystemLabel.P1, SystemLabel.P2
DM.Tolerance          1.d-4         # Default: 1.d-4
DM.UseSaveDM          .true.        # because of the bug
SCFMustConverge       .true.
NeglNonOverlapInt     F             # Default: F
#(5) Eigenvalue problem: order-N or diagonalization
SolutionMethod        Diagon        # or Transiesta
ElectronicTemperature 300.0 K       # Default: 300.0 K
#(6) Molecular dynamics and relaxations
#MD.TypeOfRun          CG            # Type of dynamics:
#MD.VariableCell       F
#MD.NumCGsteps         0           # 0 for single-point / 100 for gopt
#MD.MaxCGDispl         0.2 Bohr      # Default: 0.2 Bohr
#MD.MaxForceTol        0.02 eV/Ang   # Default: 0.04 eV/Ang
#MD.MaxStressTol       1.0 GPa       # Default: 1.0 GPa
# Geometry Constraints
#%block GeometryConstraints
#	position from 1 to 44
#%endblock GeometryConstraints
************************** End of input data file *****************************

reinit: -----------------------------------------------------------------------
reinit: System Name: GRP_doping
reinit: -----------------------------------------------------------------------
reinit: System Label: GRP_doping                                                  
reinit: -----------------------------------------------------------------------

initatom: Reading input for the pseudopotentials and atomic orbitals ----------
 Species number:            1  Label: C Atomic number:           6
 Species number:            2  Label: N Atomic number:           7
Ground state valence configuration:   2s02  2p02
Reading pseudopotential information in formatted form from C.psf

Valence configuration for pseudopotential generation:
2s( 2.00) rc: 1.54
2p( 2.00) rc: 1.54
3d( 0.00) rc: 1.54
4f( 0.00) rc: 1.54
Ground state valence configuration:   2s02  2p03
Reading pseudopotential information in formatted form from N.psf

Valence configuration for pseudopotential generation:
2s( 2.00) rc: 1.48
2p( 3.00) rc: 1.48
3d( 0.00) rc: 1.48
4f( 0.00) rc: 1.48
For C, standard SIESTA heuristics set lmxkb to 3
 (one more than the basis l, including polarization orbitals).
Use PS.lmax or PS.KBprojectors blocks to override.
For N, standard SIESTA heuristics set lmxkb to 3
 (one more than the basis l, including polarization orbitals).
Use PS.lmax or PS.KBprojectors blocks to override.

<basis_specs>
===============================================================================
C                    Z=   6    Mass=  12.010        Charge= 0.17977+309
Lmxo=1 Lmxkb= 3    BasisType=split      Semic=F
L=0  Nsemic=0  Cnfigmx=2
          n=1  nzeta=2  polorb=0
            splnorm:   0.15000    
               vcte:    0.0000    
               rinn:    0.0000    
                rcs:    0.0000      0.0000    
            lambdas:    1.0000      1.0000    
L=1  Nsemic=0  Cnfigmx=2
          n=1  nzeta=2  polorb=1
            splnorm:   0.15000    
               vcte:    0.0000    
               rinn:    0.0000    
                rcs:    0.0000      0.0000    
            lambdas:    1.0000      1.0000    
-------------------------------------------------------------------------------
L=0  Nkbl=1  erefs: 0.17977+309
L=1  Nkbl=1  erefs: 0.17977+309
L=2  Nkbl=1  erefs: 0.17977+309
L=3  Nkbl=1  erefs: 0.17977+309
===============================================================================
</basis_specs>

atom: Called for C                     (Z =   6)

read_vps: Pseudopotential generation method:
read_vps: ATM3      Troullier-Martins                       
Total valence charge:    4.00000

read_vps: Pseudopotential includes a core correction:
read_vps: Pseudo-core for xc-correction

xc_check: Exchange-correlation functional:
xc_check: GGA Perdew, Burke & Ernzerhof 1996
V l=0 = -2*Zval/r beyond r=  1.5227
V l=1 = -2*Zval/r beyond r=  1.5227
V l=2 = -2*Zval/r beyond r=  1.5227
V l=3 = -2*Zval/r beyond r=  1.5038
All V_l potentials equal beyond r=  1.5227
This should be close to max(r_c) in ps generation
All pots = -2*Zval/r beyond r=  1.5227

VLOCAL1: 99.0% of the norm of Vloc inside     18.722 Ry
VLOCAL1: 99.9% of the norm of Vloc inside     42.668 Ry
atom: Maximum radius for 4*pi*r*r*local-pseudopot. charge    1.83678
atom: Maximum radius for r*vlocal+2*Zval:    1.58088
GHOST: No ghost state for L =  0
GHOST: No ghost state for L =  1
GHOST: No ghost state for L =  2
GHOST: No ghost state for L =  3

KBgen: Kleinman-Bylander projectors: 
   l= 0   rc=  1.704034   el= -1.009801   Ekb=  5.335044   kbcos=  0.316824
   l= 1   rc=  1.704034   el= -0.388707   Ekb= -3.785862   kbcos= -0.366464
   l= 2   rc=  1.791422   el=  0.001971   Ekb= -0.970471   kbcos= -0.009212
   l= 3   rc=  1.859892   el=  0.003065   Ekb= -0.399525   kbcos= -0.001223

KBgen: Total number of  Kleinman-Bylander projectors:   16
atom: -------------------------------------------------------------------------

atom: SANKEY-TYPE ORBITALS:
atom: Selected multiple-zeta basis: split     

SPLIT: Orbitals with angular momentum L= 0

SPLIT: Basis orbitals for state 2s

SPLIT: PAO cut-off radius determined from an
SPLIT: energy shift=  0.007350 Ry

   izeta = 1
                 lambda =    1.000000
                     rc =    4.632753
                 energy =   -1.002270
                kinetic =    0.855760
    potential(screened) =   -1.858031
       potential(ionic) =   -5.417575

   izeta = 2
                 rmatch =    3.431921
              splitnorm =    0.150000
                 energy =   -0.867111
                kinetic =    1.300804
    potential(screened) =   -2.167915
       potential(ionic) =   -5.962684

SPLIT: Orbitals with angular momentum L= 1

SPLIT: Basis orbitals for state 2p

SPLIT: PAO cut-off radius determined from an
SPLIT: energy shift=  0.007350 Ry

   izeta = 1
                 lambda =    1.000000
                     rc =    5.658549
                 energy =   -0.381140
                kinetic =    2.399701
    potential(screened) =   -2.780841
       potential(ionic) =   -6.206085

   izeta = 2
                 rmatch =    3.653288
              splitnorm =    0.150000
                 energy =   -0.249149
                kinetic =    3.542762
    potential(screened) =   -3.791911
       potential(ionic) =   -7.581078

POLgen: Perturbative polarization orbital with L=  2

POLgen: Polarization orbital for state 2p

   izeta = 1
                     rc =    5.658549
                 energy =    1.109913
                kinetic =    2.304789
    potential(screened) =   -1.194876
       potential(ionic) =   -4.013592
atom: Total number of Sankey-type orbitals: 13

atm_pop: Valence configuration (for local Pseudopot. screening):
 2s( 2.00)                                                            
 2p( 2.00)                                                            
Vna: chval, zval:    4.00000   4.00000

Vna:  Cut-off radius for the neutral-atom potential:   5.658549
comcore: Pseudo-core radius Rcore=  1.791422

atom: _________________________________________________________________________

<basis_specs>
===============================================================================
N                    Z=   7    Mass=  14.010        Charge= 0.17977+309
Lmxo=1 Lmxkb= 3    BasisType=split      Semic=F
L=0  Nsemic=0  Cnfigmx=2
          n=1  nzeta=2  polorb=0
            splnorm:   0.15000    
               vcte:    0.0000    
               rinn:    0.0000    
                rcs:    0.0000      0.0000    
            lambdas:    1.0000      1.0000    
L=1  Nsemic=0  Cnfigmx=2
          n=1  nzeta=2  polorb=1
            splnorm:   0.15000    
               vcte:    0.0000    
               rinn:    0.0000    
                rcs:    0.0000      0.0000    
            lambdas:    1.0000      1.0000    
-------------------------------------------------------------------------------
L=0  Nkbl=1  erefs: 0.17977+309
L=1  Nkbl=1  erefs: 0.17977+309
L=2  Nkbl=1  erefs: 0.17977+309
L=3  Nkbl=1  erefs: 0.17977+309
===============================================================================
</basis_specs>

atom: Called for N                     (Z =   7)

read_vps: Pseudopotential generation method:
read_vps: ATM3      Troullier-Martins                       
Total valence charge:    5.00000

read_vps: Pseudopotential includes a core correction:
read_vps: Pseudo-core for xc-correction

xc_check: Exchange-correlation functional:
xc_check: GGA Perdew, Burke & Ernzerhof 1996
V l=0 = -2*Zval/r beyond r=  1.4606
V l=1 = -2*Zval/r beyond r=  1.4606
V l=2 = -2*Zval/r beyond r=  1.4606
V l=3 = -2*Zval/r beyond r=  1.4606
All V_l potentials equal beyond r=  1.4606
This should be close to max(r_c) in ps generation
All pots = -2*Zval/r beyond r=  1.4606

VLOCAL1: 99.0% of the norm of Vloc inside     20.347 Ry
VLOCAL1: 99.9% of the norm of Vloc inside     46.372 Ry
atom: Maximum radius for 4*pi*r*r*local-pseudopot. charge    1.76189
atom: Maximum radius for r*vlocal+2*Zval:    1.53550
GHOST: No ghost state for L =  0
GHOST: No ghost state for L =  1
GHOST: No ghost state for L =  2
GHOST: No ghost state for L =  3

KBgen: Kleinman-Bylander projectors: 
   l= 0   rc=  1.634559   el= -1.363963   Ekb=  5.296955   kbcos=  0.335621
   l= 1   rc=  1.614250   el= -0.521451   Ekb= -5.259161   kbcos= -0.433408
   l= 2   rc=  1.718383   el=  0.001991   Ekb= -1.271464   kbcos= -0.007566
   l= 3   rc=  1.761893   el=  0.003093   Ekb= -0.494769   kbcos= -0.001015

KBgen: Total number of  Kleinman-Bylander projectors:   16
atom: -------------------------------------------------------------------------

atom: SANKEY-TYPE ORBITALS:
atom: Selected multiple-zeta basis: split     

SPLIT: Orbitals with angular momentum L= 0

SPLIT: Basis orbitals for state 2s

SPLIT: PAO cut-off radius determined from an
SPLIT: energy shift=  0.007350 Ry

   izeta = 1
                 lambda =    1.000000
                     rc =    4.071465
                 energy =   -1.356470
                kinetic =    1.176977
    potential(screened) =   -2.533447
       potential(ionic) =   -8.057990

   izeta = 2
                 rmatch =    2.905100
              splitnorm =    0.150000
                 energy =   -1.158343
                kinetic =    1.813009
    potential(screened) =   -2.971352
       potential(ionic) =   -8.901931

SPLIT: Orbitals with angular momentum L= 1

SPLIT: Basis orbitals for state 2p

SPLIT: PAO cut-off radius determined from an
SPLIT: energy shift=  0.007350 Ry

   izeta = 1
                 lambda =    1.000000
                     rc =    4.972977
                 energy =   -0.513884
                kinetic =    3.441732
    potential(screened) =   -3.955616
       potential(ionic) =   -9.287901

   izeta = 2
                 rmatch =    3.054066
              splitnorm =    0.150000
                 energy =   -0.318226
                kinetic =    5.125348
    potential(screened) =   -5.443573
       potential(ionic) =  -11.380999

POLgen: Perturbative polarization orbital with L=  2

POLgen: Polarization orbital for state 2p

   izeta = 1
                     rc =    4.972977
                 energy =    1.607437
                kinetic =    3.268125
    potential(screened) =   -1.660688
       potential(ionic) =   -5.973652
atom: Total number of Sankey-type orbitals: 13

atm_pop: Valence configuration (for local Pseudopot. screening):
 2s( 2.00)                                                            
 2p( 3.00)                                                            
Vna: chval, zval:    5.00000   5.00000

Vna:  Cut-off radius for the neutral-atom potential:   4.972977
comcore: Pseudo-core radius Rcore=  1.554824

atom: _________________________________________________________________________

prinput: Basis input ----------------------------------------------------------

PAO.BasisType split     

%block ChemicalSpeciesLabel
    1    6 C                       # Species index, atomic number, species label
    2    7 N                       # Species index, atomic number, species label
%endblock ChemicalSpeciesLabel

%block PAO.Basis                 # Define Basis set
C                     2                    # Species label, number of l-shells
 n=2   0   2                         # n, l, Nzeta 
   4.633      3.432   
   1.000      1.000   
 n=2   1   2 P   1                   # n, l, Nzeta, Polarization, NzetaPol
   5.659      3.653   
   1.000      1.000   
N                     2                    # Species label, number of l-shells
 n=2   0   2                         # n, l, Nzeta 
   4.071      2.905   
   1.000      1.000   
 n=2   1   2 P   1                   # n, l, Nzeta, Polarization, NzetaPol
   4.973      3.054   
   1.000      1.000   
%endblock PAO.Basis

prinput: ----------------------------------------------------------------------

coor:   Atomic-coordinates input format  =     Cartesian coordinates
coor:                                          (in Angstroms)

siesta: Atomic coordinates (Bohr) and species
siesta:      2.23554   1.32097   0.00000  1        1
siesta:      4.56367   2.66461   0.00000  1        2
siesta:     32.50328  21.48508   0.00000  1        3
siesta:     34.83141  22.82873   0.00000  1        4
siesta:     34.83116  17.45226   0.00000  1        5
siesta:     37.15930  18.79590   0.00000  1        6
siesta:     32.50291  13.41944   0.00000  1        7
siesta:     34.83104  14.76308   0.00000  1        8
siesta:     30.17465   9.38661   0.00000  1        9
siesta:     32.50278  10.73026   0.00000  1       10
siesta:     27.84639   5.35379   0.00000  1       11
siesta:     30.17453   6.69743   0.00000  1       12
siesta:     27.84714  21.48508   0.00000  1       13
siesta:     30.17527  22.82873   0.00000  1       14
siesta:      6.89168   1.32097   0.00000  1       15
siesta:      9.21981   2.66461   0.00000  1       16
siesta:     11.54782   1.32097   0.00000  1       17
siesta:     13.87595   2.66461   0.00000  1       18
siesta:     16.20396   1.32097   0.00000  1       19
siesta:     18.53210   2.66461   0.00000  1       20
siesta:     23.19013   2.66461   0.00000  1       21
siesta:     25.51813   1.32097   0.00000  1       22
siesta:     27.84627   2.66461   0.00000  1       23
siesta:      6.89193   6.69743   0.00000  1       24
siesta:      9.21994   5.35379   0.00000  1       25
siesta:     11.54807   6.69743   0.00000  1       26
siesta:     13.87608   5.35379   0.00000  1       27
siesta:     16.20421   6.69743   0.00000  1       28
siesta:     20.86224   6.69743   0.00000  1       29
siesta:     23.19025   5.35379   0.00000  1       30
siesta:     25.51838   6.69743   0.00000  1       31
siesta:      9.22019  10.73026   0.00000  1       32
siesta:     11.54820   9.38661   0.00000  1       33
siesta:     13.87633  10.73026   0.00000  1       34
siesta:     18.53247  10.73026   0.00000  1       35
siesta:     20.86237   9.38661   0.00000  1       36
siesta:     23.19050  10.73026   0.00000  1       37
siesta:      9.22031  13.41944   0.00000  1       38
siesta:     11.54845  14.76308   0.00000  1       39
siesta:     13.87645  13.41944   0.00000  1       40
siesta:     16.20459  14.76308   0.00000  1       41
siesta:     18.53448  13.41944   0.00000  1       42
siesta:     20.86262  14.76308   0.00000  1       43
siesta:     13.87670  18.79590   0.00000  1       44
siesta:     16.20471  17.45226   0.00000  1       45
siesta:     18.53284  18.79590   0.00000  1       46
siesta:     13.87683  21.48508   0.00000  1       47
siesta:     16.20496  22.82873   0.00000  1       48
siesta:     18.53486  21.48508   0.00000  1       49
siesta:     20.86299  22.82873   0.00000  1       50
siesta:     27.84664  10.73026   0.00000  1       51
siesta:     23.19063  13.41944   0.00000  1       52
siesta:     25.51876  14.76308   0.00000  1       53
siesta:     23.19088  18.79590   0.00000  1       54
siesta:     27.84677  13.41944   0.00000  1       55
siesta:     30.17490  14.76308   0.00000  1       56
siesta:     25.51888  17.45226   0.00000  1       57
siesta:     27.84702  18.79590   0.00000  1       58
siesta:     23.19100  21.48508   0.00000  1       59
siesta:     25.51913  22.82873   0.00000  1       60
siesta:     32.50316  18.79590   0.00000  1       61
siesta:     37.16131  21.48508   0.00000  1       62
siesta:     39.48945  22.82873   0.00000  1       63
siesta:     20.86199   1.32097   0.00000  2       64
siesta:      4.56380   5.35379   0.00000  2       65
siesta:     18.53411   5.35379   0.00000  2       66
siesta:      6.89205   9.38661   0.00000  2       67
siesta:     16.20434   9.38661   0.00000  2       68
siesta:     11.54857  17.45226   0.00000  2       69
siesta:     25.51851   9.38661   0.00000  2       70
siesta:     20.86274  17.45226   0.00000  2       71
siesta:     30.17503  17.45226   0.00000  2       72

siesta: System type = slab      

initatomlists: Number of atoms, orbitals, and projectors:     72   936  1152

siesta: ******************** Simulation parameters ****************************
siesta:
siesta: The following are some of the parameters of the simulation.
siesta: A complete list of the parameters used, including default values,
siesta: can be found in file out.fdf
siesta:
redata: Non-Collinear-spin run           =     F
redata: SpinPolarized (Up/Down) run      =     F
redata: Number of spin components        =     1
redata: Long output                      =     F
redata: Number of Atomic Species         =        2
redata: Charge density info will appear in .RHO file
redata: Write Mulliken Pop.              =     NO
redata: Mesh Cutoff                      =   200.0000  Ry
redata: Net charge of the system         =     0.0000 |e|
redata: Max. number of SCF Iter          =      500
redata: SCF convergence failure will abort job
redata: Performing Pulay mixing using    =    10 iterations
redata: Mix DM in first SCF step ?       =     F
redata: Write Pulay info on disk?        =     F
redata: Discard 1st Pulay DM after  kick =     F
redata: New DM Mixing Weight             =     0.0500
redata: New DM Occupancy tolerance       = 0.000000000001
redata: No kicks to SCF
redata: DM Mixing Weight for Kicks       =     0.5000
redata: DM Tolerance for SCF             =     0.000100
redata: Require Energy convergence for SCF =     F
redata: DM Energy tolerance for SCF      =     0.000100 eV
redata: Require Harris convergence for SCF =     F
redata: DM Harris energy tolerance for SCF =     0.000100 eV
redata: Using Saved Data (generic)   =     F
redata: Use continuation files for DM    =     T
redata: Neglect nonoverlap interactions  =     F
redata: Method of Calculation            =     Diagonalization
redata: Divide and Conquer               =     T
redata: Electronic Temperature           =     0.0019  Ry
redata: Fix the spin of the system       =     F
redata: Dynamics option                  =     Verlet MD run
redata: Initial MD time step             =        1
redata:   Final MD time step             =        1
redata: Length of MD time step           =     1.0000  fs
redata: Initial Temperature of MD run    =     0.0000  K
redata: Perform a MD quench              =     F
redata: ***********************************************************************
Total number of electrons:   297.000000
Total ionic charge:   297.000000

* ProcessorY, Blocksize:    2  24

k-point displ. along   1 input, could be:     0.00    0.50
k-point displ. along   2 input, could be:     0.00    0.50
 Kpoints in:          364 . Kpoints trimmed:          352

siesta: k-grid: Number of k-points =   352
siesta: k-grid: Cutoff (effective) =     5.000 Ang
siesta: k-grid: Supercell and displacements
siesta: k-grid:   26   0   0      0.000
siesta: k-grid:    0  26   0      0.000
siesta: k-grid:    0   0   1      0.000
Naive supercell factors:     2    2    2

superc: Internal auxiliary supercell:     2 x     2 x     2  =       8
superc: Number of atoms, orbitals, and projectors:    576   7488   9216

* Maximum dynamic memory allocated =     6 MB

siesta:                 ==============================
                            Begin MD step =      1
                        ==============================

superc: Internal auxiliary supercell:     2 x     2 x     2  =       8
superc: Number of atoms, orbitals, and projectors:    576   7488   9216

outcell: Unit cell vectors (Ang):
       14.785000    0.000000    0.000000
        7.393000   12.805052    0.000000
        0.000000    0.000000   10.000000

outcell: Cell vector modules (Ang)   :   14.785000   14.786000   10.000000
outcell: Cell angles (23,13,12) (deg):     90.0000     90.0000     60.0000
outcell: Cell volume (Ang**3)        :   1893.2269
New_DM. Step:     1
Initializing Density Matrix...

InitMesh: MESH =   120 x   120 x    90 =     1296000
InitMesh: Mesh cutoff (required, used) =   200.000   223.865 Ry

* Maximum dynamic memory allocated =   187 MB

stepf: Fermi-Dirac step function

siesta: Program's energy decomposition (eV):
siesta: Ebs     =     -4703.508799
siesta: Eions   =     19849.732669
siesta: Ena     =      4064.186542
siesta: Ekin    =      7133.479856
siesta: Enl     =       -33.838452
siesta: DEna    =        -0.000012
siesta: DUscf   =         0.000000
siesta: DUext   =         0.000000
siesta: Exc     =     -4161.730779
siesta: eta*DQ  =         0.000000
siesta: Emadel  =         0.000000
siesta: Emeta   =         0.000000
siesta: Emolmec =         0.000000
siesta: Ekinion =         0.000000
siesta: Eharris =    -12754.885719
siesta: Etot    =    -12847.635514
siesta: FreeEng =    -12847.635514

siesta: iscf   Eharris(eV)      E_KS(eV)   FreeEng(eV)   dDmax  Ef(eV)
siesta:    1   -12754.8857   -12847.6355   -12847.6355  1.9454 -4.8159
timer: Routine,Calls,Time,% = IterSCF        1    8112.661  99.87
elaps: Routine,Calls,Wall,% = IterSCF        1    1016.043  99.90
siesta:    2   -12784.7965   -12723.5796   -12723.6161  0.5570 -3.2462
siesta:    3   -12756.9023   -12744.6682   -12744.6939  0.4381 -3.4750
siesta:    4   -12746.2833   -12742.9738   -12742.9994  0.3073 -3.3010
siesta:    5   -12741.2160   -12740.3173   -12740.3437  0.1835 -3.1738
siesta:    6   -12740.4728   -12739.6449   -12739.6796  0.1235 -3.1748
siesta:    7   -12739.8033   -12738.1431   -12738.1878  0.1074 -3.2066
siesta:    8   -12740.0021   -12737.5359   -12737.5693  0.0852 -3.2831
siesta:    9   -12739.6840   -12737.5409   -12737.5743  0.0490 -3.3996
siesta:   10   -12739.4469   -12737.8254   -12737.8614  0.0164 -3.4437
siesta:   11   -12739.4003   -12738.0425   -12738.0823  0.0109 -3.4549
siesta:   12   -12739.3830   -12738.2630   -12738.3035  0.0095 -3.4526
siesta:   13   -12739.3789   -12738.6074   -12738.6479  0.0092 -3.4542
siesta:   14   -12739.3790   -12738.6793   -12738.7199  0.0080 -3.4550
siesta:   15   -12739.3784   -12738.7587   -12738.7990  0.0078 -3.4551
siesta:   16   -12739.3774   -12739.2547   -12739.2952  0.0050 -3.4513
siesta:   17   -12739.3775   -12739.3313   -12739.3721  0.0017 -3.4489
siesta:   18   -12739.3774   -12739.3630   -12739.4035  0.0016 -3.4481
siesta:   19   -12739.3774   -12739.3991   -12739.4396  0.0010 -3.4477
siesta:   20   -12739.3773   -12739.4241   -12739.4646  0.0007 -3.4469
siesta:   21   -12739.3773   -12739.4229   -12739.4633  0.0006 -3.4468
siesta:   22   -12739.3773   -12739.4093   -12739.4498  0.0003 -3.4474
siesta:   23   -12739.3773   -12739.3879   -12739.4284  0.0002 -3.4476
siesta:   24   -12739.3773   -12739.3847   -12739.4252  0.0001 -3.4476
siesta:   25   -12739.3773   -12739.3806   -12739.4211  0.0001 -3.4475

siesta: E_KS(eV) =           -12739.3770

siesta: E_KS - E_eggbox =    -12739.3770

siesta: Atomic forces (eV/Ang):
----------------------------------------
   Tot    0.184599   -0.337101    0.000000
----------------------------------------
   Max    1.049826
   Res    0.268160    sqrt( Sum f_i^2 / 3N )
----------------------------------------
   Max    1.049826    constrained

Stress-tensor-Voigt (kbar):        0.86        0.60        0.15       -0.11        0.00        0.00
(Free)E + p*V (eV/cell)   -12740.0494
Target enthalpy (eV/cell)   -12739.4176

siesta: Stress tensor (static) (eV/Ang**3):
         0.000534   -0.000066    0.000000
        -0.000066    0.000376    0.000000
         0.000000    0.000000    0.000091

siesta: Pressure (static):         -0.53469015  kBar

siesta: Stress tensor (total) (eV/Ang**3):
         0.000534   -0.000066    0.000000
        -0.000066    0.000376    0.000000
         0.000000    0.000000    0.000091

siesta: Pressure (total):         -0.53469015  kBar

siesta: Temp_ion =       0.000 K

* Maximum dynamic memory allocated =   203 MB

siesta: Program's energy decomposition (eV):
siesta: Ebs     =     -4186.412719
siesta: Eions   =     19849.732669
siesta: Ena     =      4064.186542
siesta: Ekin    =      8580.079432
siesta: Enl     =     -1058.917306
siesta: DEna    =      -247.219433
siesta: DUscf   =        22.460446
siesta: DUext   =         0.000000
siesta: Exc     =     -4250.234062
siesta: eta*DQ  =         0.000000
siesta: Emadel  =         0.000000
siesta: Emeta   =         0.000000
siesta: Emolmec =         0.000000
siesta: Ekinion =         0.000000
siesta: Eharris =    -12739.377293
siesta: Etot    =    -12739.377049
siesta: FreeEng =    -12739.417561

siesta: Final energy (eV):
siesta:  Band Struct. =   -4186.412719
siesta:       Kinetic =    8580.079432
siesta:       Hartree =   24801.307794
siesta:    Ext. field =       0.000000
siesta:   Exch.-corr. =   -4250.234062
siesta:  Ion-electron =  -57580.474835
siesta:       Ion-ion =   15709.944622
siesta:       Ekinion =       0.000000
siesta:         Total =  -12739.377049

siesta: Atomic forces (eV/Ang):
siesta:      1    0.138006    0.516633    0.000000
siesta:      2    0.037619    0.345406    0.000000
siesta:      3    0.000670   -0.164497    0.000000
siesta:      4   -0.157519    0.284790    0.000000
siesta:      5    0.040790   -0.479866    0.000000
siesta:      6    0.260945   -0.008728    0.000000
siesta:      7    0.311842   -0.121554    0.000000
siesta:      8    0.019698    0.156366    0.000000
siesta:      9    0.287449   -0.000806    0.000000
siesta:     10    0.010008    0.219378    0.000000
siesta:     11    0.604429    0.575846    0.000000
siesta:     12    0.322698   -1.049826    0.000000
siesta:     13    0.537070   -0.242929    0.000000
siesta:     14   -0.193275    0.261972    0.000000
siesta:     15   -0.121365    0.142575    0.000000
siesta:     16    0.156385   -0.274280    0.000000
siesta:     17   -0.031345    0.367232    0.000000
siesta:     18   -0.012274   -0.069239    0.000000
siesta:     19    0.640149    0.072322    0.000000
siesta:     20    0.305777    0.203378    0.000000
siesta:     21   -0.020489   -0.377552    0.000000
siesta:     22   -0.443061   -0.071469    0.000000
siesta:     23   -0.433850   -0.162984    0.000000
siesta:     24   -0.502545    0.096479    0.000000
siesta:     25   -0.366534    0.514870    0.000000
siesta:     26   -0.040517   -0.379300    0.000000
siesta:     27    0.417609    0.469379    0.000000
siesta:     28    0.318708    0.092766    0.000000
siesta:     29   -0.387873   -0.204318    0.000000
siesta:     30   -0.614473   -0.033452    0.000000
siesta:     31   -0.022866    0.459667    0.000000
siesta:     32    0.028358   -0.418027    0.000000
siesta:     33   -0.015587    0.325560    0.000000
siesta:     34    0.001557   -0.436447    0.000000
siesta:     35   -0.031225    0.378166    0.000000
siesta:     36   -0.334338   -0.618104    0.000000
siesta:     37    0.199823   -0.288569    0.000000
siesta:     38   -0.253466    0.269066    0.000000
siesta:     39   -0.062042    0.063717    0.000000
siesta:     40    0.303902    0.256532    0.000000
siesta:     41    0.042968    0.101836    0.000000
siesta:     42   -0.380613   -0.190047    0.000000
siesta:     43    0.045076    0.522442    0.000000
siesta:     44   -0.253709   -0.089902    0.000000
siesta:     45   -0.132828   -0.399067    0.000000
siesta:     46    0.644098    0.019521    0.000000
siesta:     47   -0.697691   -0.241487    0.000000
siesta:     48    0.425583   -0.208313    0.000000
siesta:     49    0.238033   -0.409042    0.000000
siesta:     50   -0.260279    0.395844    0.000000
siesta:     51   -0.284715   -0.807253    0.000000
siesta:     52    0.281357    0.150173    0.000000
siesta:     53   -0.006529   -0.259635    0.000000
siesta:     54   -0.584057   -0.071214    0.000000
siesta:     55   -0.185631    0.491610    0.000000
siesta:     56   -0.087024    0.290472    0.000000
siesta:     57    0.161426   -0.146225    0.000000
siesta:     58    0.240710   -0.110375    0.000000
siesta:     59   -0.113195   -0.287258    0.000000
siesta:     60   -0.190628   -0.456964    0.000000
siesta:     61   -0.306846    0.144948    0.000000
siesta:     62    0.054910    0.019648    0.000000
siesta:     63    0.418881    0.041222    0.000000
siesta:     64   -0.306867    0.615294    0.000000
siesta:     65    0.137603    0.893631    0.000000
siesta:     66    0.174245    0.036703    0.000000
siesta:     67   -0.316358   -0.490546    0.000000
siesta:     68    0.370407   -0.528581    0.000000
siesta:     69   -0.052212    0.004831    0.000000
siesta:     70    0.169105    0.358717    0.000000
siesta:     71   -0.060866   -0.202477    0.000000
siesta:     72    0.101397   -0.195757    0.000000
siesta: ----------------------------------------
siesta:    Tot    0.184599   -0.337101    0.000000

siesta: Stress tensor (static) (eV/Ang**3):
siesta:     0.000534   -0.000066    0.000000
siesta:    -0.000066    0.000376    0.000000
siesta:     0.000000    0.000000    0.000091

siesta: Cell volume =       1893.226895 Ang**3

siesta: Pressure (static):
siesta:                Solid            Molecule  Units
siesta:          -0.00000363          0.00000989  Ry/Bohr**3
siesta:          -0.00033372          0.00090806  eV/Ang**3
siesta:          -0.53469015          1.45489505  kBar
(Free)E+ p_basis*V_orbitals  =      -12709.966615
(Free)Eharris+ p_basis*V_orbitals  =      -12709.963313

siesta: Electric dipole (a.u.)  =    0.000000    0.000000    0.000000
siesta: Electric dipole (Debye) =    0.000000    0.000000    0.000000

* Maximum dynamic memory allocated : Node    0 =   203 MB
* Maximum dynamic memory allocated : Node    1 =    74 MB
* Maximum dynamic memory allocated : Node    2 =    76 MB
* Maximum dynamic memory allocated : Node    3 =   192 MB
* Maximum dynamic memory allocated : Node    4 =   203 MB
* Maximum dynamic memory allocated : Node    5 =    74 MB
* Maximum dynamic memory allocated : Node    6 =    75 MB
* Maximum dynamic memory allocated : Node    7 =   187 MB

* Maximum memory occured during matrixMtoO                    

timer: CPU execution times:
timer:  Routine       Calls   Time/call    Tot.time        %
timer:  siesta            1  200624.660  200624.660   100.00
timer:  Setup             1       3.112       3.112     0.00
timer:  bands             1       0.008       0.008     0.00
timer:  writewave         1       0.016       0.016     0.00
timer:  KSV_init          1       0.000       0.000     0.00
timer:  IterMD            1  200613.414  200613.414    99.99
timer:  hsparse           1       0.264       0.264     0.00
timer:  overlap           1       6.342       6.342     0.00
timer:  IterSCF          25    8017.832  200445.807    99.91
timer:  kinefsm           2       3.268       6.536     0.00
timer:  nlefsm            2      18.915      37.830     0.02
timer:  DHSCF            26      91.431    2377.217     1.18
timer:  DHSCF1            1       0.809       0.809     0.00
timer:  DHSCF2            1      34.997      34.997     0.02
timer:  REORD           210       0.014       2.932     0.00
timer:  POISON           27       3.719     100.416     0.05
timer:  DHSCF3           26      88.764    2307.867     1.15
timer:  rhoofd           26      16.429     427.147     0.21
timer:  cellXC           26       3.601      93.633     0.05
timer:  vmat             26      44.668    1161.364     0.58
timer:  MolMec            2       0.000       0.000     0.00
timer:  diagon           25    7924.805  198120.137    98.75
timer:  c-eigval       8800       7.273   64000.426    31.90
timer:  c-buildHS      8800       0.216    1901.624     0.95
timer:  cdiag         17600       7.450  131119.183    65.36
timer:  cdiag1        17600       0.464    8172.108     4.07
timer:  cdiag2        17600       1.985   34931.515    17.41
timer:  cdiag3        17600       4.193   73793.669    36.78
timer:  cdiag4        17600       0.249    4376.555     2.18
timer:  c-eigvec       8800       7.936   69833.202    34.81
timer:  c-buildD       8800       7.293   64180.811    31.99
timer:  DHSCF4            1      31.205      31.205     0.02
timer:  dfscf             1      29.369      29.369     0.01
timer:  overfsm           1       0.379       0.379     0.00
timer:  optical           1       7.115       7.115     0.00
  

elaps: ELAPSED times:
elaps:  Routine       Calls   Time/call    Tot.time        %
elaps:  siesta            1   25116.844   25116.844   100.00
elaps:  Setup             1       0.388       0.388     0.00
elaps:  bands             1       0.001       0.001     0.00
elaps:  writewave         1       0.002       0.002     0.00
elaps:  KSV_init          1       0.000       0.000     0.00
elaps:  IterMD            1   25115.438   25115.438    99.99
elaps:  hsparse           1       0.032       0.032     0.00
elaps:  overlap           1       0.524       0.524     0.00
elaps:  IterSCF          25    1003.792   25094.804    99.91
elaps:  kinefsm           2       0.274       0.548     0.00
elaps:  nlefsm            2       2.464       4.928     0.02
elaps:  DHSCF            26      11.561     300.590     1.20
elaps:  DHSCF1            1       0.109       0.109     0.00
elaps:  DHSCF2            1       4.373       4.373     0.02
elaps:  REORD           210       0.002       0.372     0.00
elaps:  POISON           27       0.467      12.618     0.05
elaps:  DHSCF3           26      11.106     288.749     1.15
elaps:  rhoofd           26       3.542      92.081     0.37
elaps:  cellXC           26       0.450      11.688     0.05
elaps:  vmat             26       5.589     145.305     0.58
elaps:  MolMec            2       0.000       0.000     0.00
elaps:  diagon           25     992.173   24804.331    98.76
elaps:  c-eigval       8800       0.910    8008.618    31.89
elaps:  c-buildHS      8800       0.029     251.105     1.00
elaps:  cdiag         17600       0.915   16104.540    64.12
elaps:  cdiag1        17600       0.057    1009.580     4.02
elaps:  cdiag2        17600       0.248    4371.218    17.40
elaps:  cdiag3        17600       0.525    9248.132    36.82
elaps:  cdiag4        17600       0.034     593.568     2.36
elaps:  c-eigvec       8800       0.962    8462.952    33.69
elaps:  c-buildD       8800       0.945    8317.765    33.12
elaps:  DHSCF4            1       7.032       7.032     0.03
elaps:  dfscf             1       6.655       6.655     0.03
elaps:  overfsm           1       0.049       0.049     0.00
elaps:  optical           1       0.000       0.000     0.00
  
>> End of run:   1-DEC-2015  12:00:22
