Siesta Version:                                        siesta-3.2-pl-3
Architecture  : x86_64-unknown-linux-gnu--unknown
Compiler flags: mpiifort -g -O2 -fPIC -xSSE4.1 -fp-model source -shared-intel 
PARALLEL version

* Running on    8 nodes in parallel
>> Start of run:   4-DEC-2015  14:14:16

                           ***********************       
                           *  WELCOME TO SIESTA  *       
                           ***********************       

reinit: Reading from standard input
************************** Dump of input data file ****************************
#(1) General system descriptors
SystemName            GRP_doping    # Descriptive name of the system
SystemLabel           GRP_doping    # Short name for naming files
%include STRUCT.fdf
%include KPT.fdf
%include BASIS.fdf
#%include TS.fdf # for transiesta calculation
#(4) DFT, Grid, SCF
XC.functional         GGA           # LDA or GGA (default = LDA)
XC.authors            PBE           # CA (Ceperley-Aldr) = PZ
                                    #    (Perdew-Zunger) - LDA - Default
                                    # PW92 (Perdew-Wang-92) - LDA
                                    # PBE (Perdew-Burke-Ernzerhof) - GGA
MeshCutoff            200.000000    Ry      # Default: 50.0 Ry ~ 0.444 Bohr
                                    #         100.0 Ry ~ 0.314 Bohr
MaxSCFIterations      500           # Default: 50
DM.MixingWeight       0.05          # Default: 0.25
DM.NumberPulay        10            # Default: 0
DM.PulayOnFile        F             # SystemLabel.P1, SystemLabel.P2
DM.Tolerance          1.d-4         # Default: 1.d-4
DM.UseSaveDM          .true.        # because of the bug
SCFMustConverge       .true.
NeglNonOverlapInt     F             # Default: F
#(5) Eigenvalue problem: order-N or diagonalization
SolutionMethod        Diagon        # or Transiesta
ElectronicTemperature 300.0 K       # Default: 300.0 K
#(6) Molecular dynamics and relaxations
#MD.TypeOfRun          CG            # Type of dynamics:
#MD.VariableCell       F
#MD.NumCGsteps         0           # 0 for single-point / 100 for gopt
#MD.MaxCGDispl         0.2 Bohr      # Default: 0.2 Bohr
#MD.MaxForceTol        0.02 eV/Ang   # Default: 0.04 eV/Ang
#MD.MaxStressTol       1.0 GPa       # Default: 1.0 GPa
# Geometry Constraints
#%block GeometryConstraints
#	position from 1 to 44
#%endblock GeometryConstraints
************************** End of input data file *****************************

reinit: -----------------------------------------------------------------------
reinit: System Name: GRP_doping
reinit: -----------------------------------------------------------------------
reinit: System Label: GRP_doping                                                  
reinit: -----------------------------------------------------------------------

initatom: Reading input for the pseudopotentials and atomic orbitals ----------
 Species number:            1  Label: B Atomic number:           5
 Species number:            2  Label: C Atomic number:           6
Ground state valence configuration:   2s02  2p01
Reading pseudopotential information in formatted form from B.psf

Valence configuration for pseudopotential generation:
2s( 2.00) rc: 1.74
2p( 1.00) rc: 1.74
3d( 0.00) rc: 1.74
4f( 0.00) rc: 1.74
Ground state valence configuration:   2s02  2p02
Reading pseudopotential information in formatted form from C.psf

Valence configuration for pseudopotential generation:
2s( 2.00) rc: 1.54
2p( 2.00) rc: 1.54
3d( 0.00) rc: 1.54
4f( 0.00) rc: 1.54
For B, standard SIESTA heuristics set lmxkb to 3
 (one more than the basis l, including polarization orbitals).
Use PS.lmax or PS.KBprojectors blocks to override.
For C, standard SIESTA heuristics set lmxkb to 3
 (one more than the basis l, including polarization orbitals).
Use PS.lmax or PS.KBprojectors blocks to override.

<basis_specs>
===============================================================================
B                    Z=   5    Mass=  10.810        Charge= 0.17977+309
Lmxo=1 Lmxkb= 3    BasisType=split      Semic=F
L=0  Nsemic=0  Cnfigmx=2
          n=1  nzeta=2  polorb=0
            splnorm:   0.15000    
               vcte:    0.0000    
               rinn:    0.0000    
                rcs:    0.0000      0.0000    
            lambdas:    1.0000      1.0000    
L=1  Nsemic=0  Cnfigmx=2
          n=1  nzeta=2  polorb=1
            splnorm:   0.15000    
               vcte:    0.0000    
               rinn:    0.0000    
                rcs:    0.0000      0.0000    
            lambdas:    1.0000      1.0000    
-------------------------------------------------------------------------------
L=0  Nkbl=1  erefs: 0.17977+309
L=1  Nkbl=1  erefs: 0.17977+309
L=2  Nkbl=1  erefs: 0.17977+309
L=3  Nkbl=1  erefs: 0.17977+309
===============================================================================
</basis_specs>

atom: Called for B                     (Z =   5)

read_vps: Pseudopotential generation method:
read_vps: ATM3      Troullier-Martins                       
Total valence charge:    3.00000

read_vps: Pseudopotential includes a core correction:
read_vps: Pseudo-core for xc-correction

xc_check: Exchange-correlation functional:
xc_check: GGA Perdew, Burke & Ernzerhof 1996
V l=0 = -2*Zval/r beyond r=  1.7165
V l=1 = -2*Zval/r beyond r=  1.7165
V l=2 = -2*Zval/r beyond r=  1.7165
V l=3 = -2*Zval/r beyond r=  1.6951
All V_l potentials equal beyond r=  1.7165
This should be close to max(r_c) in ps generation
All pots = -2*Zval/r beyond r=  1.7165

VLOCAL1: 99.0% of the norm of Vloc inside     14.733 Ry
VLOCAL1: 99.9% of the norm of Vloc inside     33.577 Ry
atom: Maximum radius for 4*pi*r*r*local-pseudopot. charge    2.04484
atom: Maximum radius for r*vlocal+2*Zval:    1.75994
GHOST: No ghost state for L =  0
GHOST: No ghost state for L =  1
GHOST: No ghost state for L =  2
GHOST: No ghost state for L =  3

KBgen: Kleinman-Bylander projectors: 
   l= 0   rc=  1.897051   el= -0.693730   Ekb=  4.595746   kbcos=  0.286105
   l= 1   rc=  1.920920   el= -0.265236   Ekb= -2.350715   kbcos= -0.315747
   l= 2   rc=  2.044840   el=  0.002055   Ekb= -0.690767   kbcos= -0.013822
   l= 3   rc=  2.149707   el=  0.003188   Ekb= -0.315358   kbcos= -0.002055

KBgen: Total number of  Kleinman-Bylander projectors:   16
atom: -------------------------------------------------------------------------

atom: SANKEY-TYPE ORBITALS:
atom: Selected multiple-zeta basis: split     

SPLIT: Orbitals with angular momentum L= 0

SPLIT: Basis orbitals for state 2s

SPLIT: PAO cut-off radius determined from an
SPLIT: energy shift=  0.007350 Ry

   izeta = 1
                 lambda =    1.000000
                     rc =    5.422032
                 energy =   -0.686029
                kinetic =    0.576707
    potential(screened) =   -1.262736
       potential(ionic) =   -3.271094

   izeta = 2
                 rmatch =    4.222573
              splitnorm =    0.150000
                 energy =   -0.602132
                kinetic =    0.858975
    potential(screened) =   -1.461107
       potential(ionic) =   -3.582536

SPLIT: Orbitals with angular momentum L= 1

SPLIT: Basis orbitals for state 2p

SPLIT: PAO cut-off radius determined from an
SPLIT: energy shift=  0.007350 Ry

   izeta = 1
                 lambda =    1.000000
                     rc =    6.790259
                 energy =   -0.258578
                kinetic =    1.481412
    potential(screened) =   -1.739989
       potential(ionic) =   -3.657461

   izeta = 2
                 rmatch =    4.608740
              splitnorm =    0.150000
                 energy =   -0.173757
                kinetic =    2.186690
    potential(screened) =   -2.360447
       potential(ionic) =   -4.464260

POLgen: Perturbative polarization orbital with L=  2

POLgen: Polarization orbital for state 2p

   izeta = 1
                     rc =    6.790259
                 energy =    0.684082
                kinetic =    1.471481
    potential(screened) =   -0.787399
       potential(ionic) =   -2.406985
atom: Total number of Sankey-type orbitals: 13

atm_pop: Valence configuration (for local Pseudopot. screening):
 2s( 2.00)                                                            
 2p( 1.00)                                                            
Vna: chval, zval:    3.00000   3.00000

Vna:  Cut-off radius for the neutral-atom potential:   6.790259
comcore: Pseudo-core radius Rcore=  2.122997

atom: _________________________________________________________________________

<basis_specs>
===============================================================================
C                    Z=   6    Mass=  12.010        Charge= 0.17977+309
Lmxo=1 Lmxkb= 3    BasisType=split      Semic=F
L=0  Nsemic=0  Cnfigmx=2
          n=1  nzeta=2  polorb=0
            splnorm:   0.15000    
               vcte:    0.0000    
               rinn:    0.0000    
                rcs:    0.0000      0.0000    
            lambdas:    1.0000      1.0000    
L=1  Nsemic=0  Cnfigmx=2
          n=1  nzeta=2  polorb=1
            splnorm:   0.15000    
               vcte:    0.0000    
               rinn:    0.0000    
                rcs:    0.0000      0.0000    
            lambdas:    1.0000      1.0000    
-------------------------------------------------------------------------------
L=0  Nkbl=1  erefs: 0.17977+309
L=1  Nkbl=1  erefs: 0.17977+309
L=2  Nkbl=1  erefs: 0.17977+309
L=3  Nkbl=1  erefs: 0.17977+309
===============================================================================
</basis_specs>

atom: Called for C                     (Z =   6)

read_vps: Pseudopotential generation method:
read_vps: ATM3      Troullier-Martins                       
Total valence charge:    4.00000

read_vps: Pseudopotential includes a core correction:
read_vps: Pseudo-core for xc-correction

xc_check: Exchange-correlation functional:
xc_check: GGA Perdew, Burke & Ernzerhof 1996
V l=0 = -2*Zval/r beyond r=  1.5227
V l=1 = -2*Zval/r beyond r=  1.5227
V l=2 = -2*Zval/r beyond r=  1.5227
V l=3 = -2*Zval/r beyond r=  1.5038
All V_l potentials equal beyond r=  1.5227
This should be close to max(r_c) in ps generation
All pots = -2*Zval/r beyond r=  1.5227

VLOCAL1: 99.0% of the norm of Vloc inside     18.722 Ry
VLOCAL1: 99.9% of the norm of Vloc inside     42.668 Ry
atom: Maximum radius for 4*pi*r*r*local-pseudopot. charge    1.83678
atom: Maximum radius for r*vlocal+2*Zval:    1.58088
GHOST: No ghost state for L =  0
GHOST: No ghost state for L =  1
GHOST: No ghost state for L =  2
GHOST: No ghost state for L =  3

KBgen: Kleinman-Bylander projectors: 
   l= 0   rc=  1.704034   el= -1.009801   Ekb=  5.335044   kbcos=  0.316824
   l= 1   rc=  1.704034   el= -0.388707   Ekb= -3.785862   kbcos= -0.366464
   l= 2   rc=  1.791422   el=  0.001971   Ekb= -0.970471   kbcos= -0.009212
   l= 3   rc=  1.859892   el=  0.003065   Ekb= -0.399525   kbcos= -0.001223

KBgen: Total number of  Kleinman-Bylander projectors:   16
atom: -------------------------------------------------------------------------

atom: SANKEY-TYPE ORBITALS:
atom: Selected multiple-zeta basis: split     

SPLIT: Orbitals with angular momentum L= 0

SPLIT: Basis orbitals for state 2s

SPLIT: PAO cut-off radius determined from an
SPLIT: energy shift=  0.007350 Ry

   izeta = 1
                 lambda =    1.000000
                     rc =    4.632753
                 energy =   -1.002270
                kinetic =    0.855760
    potential(screened) =   -1.858031
       potential(ionic) =   -5.417575

   izeta = 2
                 rmatch =    3.431921
              splitnorm =    0.150000
                 energy =   -0.867111
                kinetic =    1.300804
    potential(screened) =   -2.167915
       potential(ionic) =   -5.962684

SPLIT: Orbitals with angular momentum L= 1

SPLIT: Basis orbitals for state 2p

SPLIT: PAO cut-off radius determined from an
SPLIT: energy shift=  0.007350 Ry

   izeta = 1
                 lambda =    1.000000
                     rc =    5.658549
                 energy =   -0.381140
                kinetic =    2.399701
    potential(screened) =   -2.780841
       potential(ionic) =   -6.206085

   izeta = 2
                 rmatch =    3.653288
              splitnorm =    0.150000
                 energy =   -0.249149
                kinetic =    3.542762
    potential(screened) =   -3.791911
       potential(ionic) =   -7.581078

POLgen: Perturbative polarization orbital with L=  2

POLgen: Polarization orbital for state 2p

   izeta = 1
                     rc =    5.658549
                 energy =    1.109913
                kinetic =    2.304789
    potential(screened) =   -1.194876
       potential(ionic) =   -4.013592
atom: Total number of Sankey-type orbitals: 13

atm_pop: Valence configuration (for local Pseudopot. screening):
 2s( 2.00)                                                            
 2p( 2.00)                                                            
Vna: chval, zval:    4.00000   4.00000

Vna:  Cut-off radius for the neutral-atom potential:   5.658549
comcore: Pseudo-core radius Rcore=  1.791422

atom: _________________________________________________________________________

prinput: Basis input ----------------------------------------------------------

PAO.BasisType split     

%block ChemicalSpeciesLabel
    1    5 B                       # Species index, atomic number, species label
    2    6 C                       # Species index, atomic number, species label
%endblock ChemicalSpeciesLabel

%block PAO.Basis                 # Define Basis set
B                     2                    # Species label, number of l-shells
 n=2   0   2                         # n, l, Nzeta 
   5.422      4.223   
   1.000      1.000   
 n=2   1   2 P   1                   # n, l, Nzeta, Polarization, NzetaPol
   6.790      4.609   
   1.000      1.000   
C                     2                    # Species label, number of l-shells
 n=2   0   2                         # n, l, Nzeta 
   4.633      3.432   
   1.000      1.000   
 n=2   1   2 P   1                   # n, l, Nzeta, Polarization, NzetaPol
   5.659      3.653   
   1.000      1.000   
%endblock PAO.Basis

prinput: ----------------------------------------------------------------------

coor:   Atomic-coordinates input format  =     Cartesian coordinates
coor:                                          (in Angstroms)

siesta: Atomic coordinates (Bohr) and species
siesta:      2.23554   1.32097   0.00000  1        1
siesta:     32.50328  21.48508   0.00000  1        2
siesta:     34.83141  22.82873   0.00000  1        3
siesta:     11.54782   1.32097   0.00000  1        4
siesta:     20.86199   1.32097   0.00000  1        5
siesta:      4.56380   5.35379   0.00000  1        6
siesta:      6.89193   6.69743   0.00000  1        7
siesta:     13.87608   5.35379   0.00000  1        8
siesta:     16.20421   6.69743   0.00000  1        9
siesta:     23.19025   5.35379   0.00000  1       10
siesta:     25.51838   6.69743   0.00000  1       11
siesta:      6.89205   9.38661   0.00000  1       12
siesta:     16.20434   9.38661   0.00000  1       13
siesta:      9.22031  13.41944   0.00000  1       14
siesta:     11.54845  14.76308   0.00000  1       15
siesta:     18.53448  13.41944   0.00000  1       16
siesta:     20.86262  14.76308   0.00000  1       17
siesta:     11.54857  17.45226   0.00000  1       18
siesta:     13.87683  21.48508   0.00000  1       19
siesta:     16.20496  22.82873   0.00000  1       20
siesta:     25.51851   9.38661   0.00000  1       21
siesta:     20.86274  17.45226   0.00000  1       22
siesta:     27.84677  13.41944   0.00000  1       23
siesta:     30.17490  14.76308   0.00000  1       24
siesta:     23.19100  21.48508   0.00000  1       25
siesta:     25.51913  22.82873   0.00000  1       26
siesta:     30.17503  17.45226   0.00000  1       27
siesta:      4.56367   2.66461   0.00000  2       28
siesta:     34.83116  17.45226   0.00000  2       29
siesta:     37.15930  18.79590   0.00000  2       30
siesta:     32.50291  13.41944   0.00000  2       31
siesta:     34.83104  14.76308   0.00000  2       32
siesta:     30.17465   9.38661   0.00000  2       33
siesta:     32.50278  10.73026   0.00000  2       34
siesta:     27.84639   5.35379   0.00000  2       35
siesta:     30.17453   6.69743   0.00000  2       36
siesta:     27.84714  21.48508   0.00000  2       37
siesta:     30.17527  22.82873   0.00000  2       38
siesta:      6.89168   1.32097   0.00000  2       39
siesta:      9.21981   2.66461   0.00000  2       40
siesta:     13.87595   2.66461   0.00000  2       41
siesta:     16.20396   1.32097   0.00000  2       42
siesta:     18.53210   2.66461   0.00000  2       43
siesta:     23.19013   2.66461   0.00000  2       44
siesta:     25.51813   1.32097   0.00000  2       45
siesta:     27.84627   2.66461   0.00000  2       46
siesta:      9.21994   5.35379   0.00000  2       47
siesta:     11.54807   6.69743   0.00000  2       48
siesta:     18.53411   5.35379   0.00000  2       49
siesta:     20.86224   6.69743   0.00000  2       50
siesta:      9.22019  10.73026   0.00000  2       51
siesta:     11.54820   9.38661   0.00000  2       52
siesta:     13.87633  10.73026   0.00000  2       53
siesta:     18.53247  10.73026   0.00000  2       54
siesta:     20.86237   9.38661   0.00000  2       55
siesta:     23.19050  10.73026   0.00000  2       56
siesta:     13.87645  13.41944   0.00000  2       57
siesta:     16.20459  14.76308   0.00000  2       58
siesta:     13.87670  18.79590   0.00000  2       59
siesta:     16.20471  17.45226   0.00000  2       60
siesta:     18.53284  18.79590   0.00000  2       61
siesta:     18.53486  21.48508   0.00000  2       62
siesta:     20.86299  22.82873   0.00000  2       63
siesta:     27.84664  10.73026   0.00000  2       64
siesta:     23.19063  13.41944   0.00000  2       65
siesta:     25.51876  14.76308   0.00000  2       66
siesta:     23.19088  18.79590   0.00000  2       67
siesta:     25.51888  17.45226   0.00000  2       68
siesta:     27.84702  18.79590   0.00000  2       69
siesta:     32.50316  18.79590   0.00000  2       70
siesta:     37.16131  21.48508   0.00000  2       71
siesta:     39.48945  22.82873   0.00000  2       72

siesta: System type = slab      

initatomlists: Number of atoms, orbitals, and projectors:     72   936  1152

siesta: ******************** Simulation parameters ****************************
siesta:
siesta: The following are some of the parameters of the simulation.
siesta: A complete list of the parameters used, including default values,
siesta: can be found in file out.fdf
siesta:
redata: Non-Collinear-spin run           =     F
redata: SpinPolarized (Up/Down) run      =     F
redata: Number of spin components        =     1
redata: Long output                      =     F
redata: Number of Atomic Species         =        2
redata: Charge density info will appear in .RHO file
redata: Write Mulliken Pop.              =     NO
redata: Mesh Cutoff                      =   200.0000  Ry
redata: Net charge of the system         =     0.0000 |e|
redata: Max. number of SCF Iter          =      500
redata: SCF convergence failure will abort job
redata: Performing Pulay mixing using    =    10 iterations
redata: Mix DM in first SCF step ?       =     F
redata: Write Pulay info on disk?        =     F
redata: Discard 1st Pulay DM after  kick =     F
redata: New DM Mixing Weight             =     0.0500
redata: New DM Occupancy tolerance       = 0.000000000001
redata: No kicks to SCF
redata: DM Mixing Weight for Kicks       =     0.5000
redata: DM Tolerance for SCF             =     0.000100
redata: Require Energy convergence for SCF =     F
redata: DM Energy tolerance for SCF      =     0.000100 eV
redata: Require Harris convergence for SCF =     F
redata: DM Harris energy tolerance for SCF =     0.000100 eV
redata: Using Saved Data (generic)   =     F
redata: Use continuation files for DM    =     T
redata: Neglect nonoverlap interactions  =     F
redata: Method of Calculation            =     Diagonalization
redata: Divide and Conquer               =     T
redata: Electronic Temperature           =     0.0019  Ry
redata: Fix the spin of the system       =     F
redata: Dynamics option                  =     Verlet MD run
redata: Initial MD time step             =        1
redata:   Final MD time step             =        1
redata: Length of MD time step           =     1.0000  fs
redata: Initial Temperature of MD run    =     0.0000  K
redata: Perform a MD quench              =     F
redata: ***********************************************************************
Total number of electrons:   261.000000
Total ionic charge:   261.000000

* ProcessorY, Blocksize:    2  24

k-point displ. along   1 input, could be:     0.00    0.50
k-point displ. along   2 input, could be:     0.00    0.50
 Kpoints in:          364 . Kpoints trimmed:          352

siesta: k-grid: Number of k-points =   352
siesta: k-grid: Cutoff (effective) =     5.000 Ang
siesta: k-grid: Supercell and displacements
siesta: k-grid:   26   0   0      0.000
siesta: k-grid:    0  26   0      0.000
siesta: k-grid:    0   0   1      0.000
Naive supercell factors:     2    2    2

superc: Internal auxiliary supercell:     2 x     2 x     2  =       8
superc: Number of atoms, orbitals, and projectors:    576   7488   9216

* Maximum dynamic memory allocated =     6 MB

siesta:                 ==============================
                            Begin MD step =      1
                        ==============================

superc: Internal auxiliary supercell:     2 x     2 x     2  =       8
superc: Number of atoms, orbitals, and projectors:    576   7488   9216

outcell: Unit cell vectors (Ang):
       14.785000    0.000000    0.000000
        7.393000   12.805052    0.000000
        0.000000    0.000000   10.000000

outcell: Cell vector modules (Ang)   :   14.785000   14.786000   10.000000
outcell: Cell angles (23,13,12) (deg):     90.0000     90.0000     60.0000
outcell: Cell volume (Ang**3)        :   1893.2269
New_DM. Step:     1
Initializing Density Matrix...

InitMesh: MESH =   120 x   120 x    90 =     1296000
InitMesh: Mesh cutoff (required, used) =   200.000   223.865 Ry

* Maximum dynamic memory allocated =   231 MB

stepf: Fermi-Dirac step function

siesta: Program's energy decomposition (eV):
siesta: Ebs     =     -4177.773414
siesta: Eions   =     14945.479869
siesta: Ena     =      3358.766190
siesta: Ekin    =      4954.252969
siesta: Enl     =       455.642346
siesta: DEna    =        -0.000005
siesta: DUscf   =         0.000000
siesta: DUext   =         0.000000
siesta: Exc     =     -4005.800681
siesta: eta*DQ  =         0.000000
siesta: Emadel  =         0.000000
siesta: Emeta   =         0.000000
siesta: Emolmec =         0.000000
siesta: Ekinion =         0.000000
siesta: Eharris =    -10086.212362
siesta: Etot    =    -10182.619049
siesta: FreeEng =    -10182.619049

siesta: iscf   Eharris(eV)      E_KS(eV)   FreeEng(eV)   dDmax  Ef(eV)
siesta:    1   -10086.2124   -10182.6190   -10182.6190  1.8890 -9.3075
timer: Routine,Calls,Time,% = IterSCF        1    6891.948  99.83
elaps: Routine,Calls,Wall,% = IterSCF        1     862.550  99.83
siesta:    2   -10126.3556    -9997.5293    -9997.5670  1.1009 -3.5641
siesta:    3   -10050.5810   -10094.5831   -10094.6142  0.8246 -6.1334
siesta:    4   -10055.7936   -10085.7046   -10085.7404  0.7549 -5.8107
siesta:    5   -10047.5345   -10077.1803   -10077.2201  0.5935 -5.8017
siesta:    6   -10044.1111   -10053.4850   -10053.5218  0.1766 -5.9377
siesta:    7   -10044.0689   -10053.3956   -10053.4328  0.1746 -5.9429
siesta:    8   -10041.6941   -10042.2294   -10042.2666  0.0187 -6.1706
siesta:    9   -10041.5878   -10042.4813   -10042.5271  0.0257 -6.1830
siesta:   10   -10041.4780   -10042.1313   -10042.1794  0.0157 -6.1698
siesta:   11   -10041.4464   -10041.7165   -10041.7639  0.0122 -6.1704
siesta:   12   -10041.4493   -10041.4047   -10041.4519  0.0053 -6.1608
siesta:   13   -10041.4453   -10041.2827   -10041.3297  0.0035 -6.1630
siesta:   14   -10041.4452   -10041.2689   -10041.3161  0.0026 -6.1627
siesta:   15   -10041.4451   -10041.2828   -10041.3300  0.0020 -6.1629
siesta:   16   -10041.4451   -10041.3718   -10041.4190  0.0009 -6.1618
siesta:   17   -10041.4451   -10041.4384   -10041.4856  0.0004 -6.1617
siesta:   18   -10041.4451   -10041.4629   -10041.5100  0.0001 -6.1615
siesta:   19   -10041.4451   -10041.4579   -10041.5051  0.0001 -6.1615

siesta: E_KS(eV) =           -10041.4583

siesta: E_KS - E_eggbox =    -10041.4583

siesta: Atomic forces (eV/Ang):
----------------------------------------
   Tot    0.539252    0.167725    0.000000
----------------------------------------
   Max    5.541180
   Res    2.464362    sqrt( Sum f_i^2 / 3N )
----------------------------------------
   Max    5.541180    constrained

Stress-tensor-Voigt (kbar):     -274.26     -241.22       -0.71       26.17        0.00        0.00
(Free)E + p*V (eV/cell)    -9838.1883
Target enthalpy (eV/cell)   -10041.5054

siesta: Stress tensor (static) (eV/Ang**3):
        -0.171176    0.016337    0.000000
         0.016337   -0.150555    0.000000
         0.000000    0.000000   -0.000444

siesta: Pressure (static):        172.06256044  kBar

siesta: Stress tensor (total) (eV/Ang**3):
        -0.171176    0.016337    0.000000
         0.016337   -0.150555    0.000000
         0.000000    0.000000   -0.000444

siesta: Pressure (total):        172.06256044  kBar

siesta: Temp_ion =       0.000 K

* Maximum dynamic memory allocated =   246 MB

siesta: Program's energy decomposition (eV):
siesta: Ebs     =     -3330.430604
siesta: Eions   =     14945.479869
siesta: Ena     =      3358.766190
siesta: Ekin    =      6482.064078
siesta: Enl     =      -472.924628
siesta: DEna    =      -385.140063
siesta: DUscf   =        43.174704
siesta: DUext   =         0.000000
siesta: Exc     =     -4121.918681
siesta: eta*DQ  =         0.000000
siesta: Emadel  =         0.000000
siesta: Emeta   =         0.000000
siesta: Emolmec =         0.000000
siesta: Ekinion =         0.000000
siesta: Eharris =    -10041.445056
siesta: Etot    =    -10041.458269
siesta: FreeEng =    -10041.505434

siesta: Final energy (eV):
siesta:  Band Struct. =   -3330.430604
siesta:       Kinetic =    6482.064078
siesta:       Hartree =   18831.614526
siesta:    Ext. field =       0.000000
siesta:   Exch.-corr. =   -4121.918681
siesta:  Ion-electron =  -43511.770841
siesta:       Ion-ion =   12278.552649
siesta:       Ekinion =       0.000000
siesta:         Total =  -10041.458269

siesta: Atomic forces (eV/Ang):
siesta:      1   -0.878064    5.235432    0.000000
siesta:      2   -4.975858   -1.838942    0.000000
siesta:      3    5.533905   -3.168337    0.000000
siesta:      4   -0.877513    5.224404    0.000000
siesta:      5   -0.891481    5.243279    0.000000
siesta:      6   -4.996168   -1.833503    0.000000
siesta:      7    5.516300   -3.178673    0.000000
siesta:      8   -4.979554   -1.842518    0.000000
siesta:      9    5.541180   -3.195832    0.000000
siesta:     10   -4.979116   -1.843019    0.000000
siesta:     11    5.516671   -3.177333    0.000000
siesta:     12   -0.889588    5.260787    0.000000
siesta:     13   -0.860720    5.254758    0.000000
siesta:     14   -4.997789   -1.834166    0.000000
siesta:     15    5.513272   -3.177450    0.000000
siesta:     16   -5.010315   -1.825585    0.000000
siesta:     17    5.506722   -3.178356    0.000000
siesta:     18   -0.885387    5.260151    0.000000
siesta:     19   -4.957429   -1.849418    0.000000
siesta:     20    5.536542   -3.168133    0.000000
siesta:     21   -0.873966    5.252050    0.000000
siesta:     22   -0.900269    5.269261    0.000000
siesta:     23   -4.985051   -1.842346    0.000000
siesta:     24    5.517766   -3.178216    0.000000
siesta:     25   -4.984334   -1.838625    0.000000
siesta:     26    5.520751   -3.149641    0.000000
siesta:     27   -0.874769    5.253550    0.000000
siesta:     28    4.150978   -2.388412    0.000000
siesta:     29   -0.956155    0.549496    0.000000
siesta:     30   -2.324760    1.811051    0.000000
siesta:     31    2.289163   -1.324370    0.000000
siesta:     32   -2.725259    1.119714    0.000000
siesta:     33   -0.957623    0.546421    0.000000
siesta:     34   -2.328389    1.810319    0.000000
siesta:     35    2.290210   -1.323986    0.000000
siesta:     36   -2.726004    1.119332    0.000000
siesta:     37    2.285800   -1.320144    0.000000
siesta:     38   -2.744606    1.147922    0.000000
siesta:     39   -0.956423    0.528903    0.000000
siesta:     40   -2.343642    1.813883    0.000000
siesta:     41    4.157799   -2.388696    0.000000
siesta:     42   -0.951649    0.530075    0.000000
siesta:     43   -2.309194    1.798570    0.000000
siesta:     44    4.148692   -2.388341    0.000000
siesta:     45   -0.953801    0.529500    0.000000
siesta:     46   -2.332655    1.806133    0.000000
siesta:     47    2.286239   -1.322301    0.000000
siesta:     48   -2.740172    1.126772    0.000000
siesta:     49    2.254654   -1.305965    0.000000
siesta:     50   -2.747455    1.127409    0.000000
siesta:     51    4.154931   -2.383141    0.000000
siesta:     52   -0.959395    0.548019    0.000000
siesta:     53   -2.347029    1.816405    0.000000
siesta:     54    4.177211   -2.395798    0.000000
siesta:     55   -0.983286    0.555484    0.000000
siesta:     56   -2.350680    1.818372    0.000000
siesta:     57    2.294193   -1.322976    0.000000
siesta:     58   -2.710782    1.111811    0.000000
siesta:     59    4.150132   -2.382841    0.000000
siesta:     60   -0.952622    0.548267    0.000000
siesta:     61   -2.307547    1.801956    0.000000
siesta:     62    2.257256   -1.303944    0.000000
siesta:     63   -2.749615    1.145167    0.000000
siesta:     64    4.156696   -2.382453    0.000000
siesta:     65    2.289670   -1.321043    0.000000
siesta:     66   -2.741131    1.127285    0.000000
siesta:     67    4.152930   -2.382575    0.000000
siesta:     68   -0.959863    0.547353    0.000000
siesta:     69   -2.343329    1.817450    0.000000
siesta:     70    4.152599   -2.383881    0.000000
siesta:     71    2.255617   -1.302278    0.000000
siesta:     72   -2.768192    1.154221    0.000000
siesta: ----------------------------------------
siesta:    Tot    0.539252    0.167725    0.000000

siesta: Stress tensor (static) (eV/Ang**3):
siesta:    -0.171176    0.016337    0.000000
siesta:     0.016337   -0.150555    0.000000
siesta:     0.000000    0.000000   -0.000444

siesta: Cell volume =       1893.226895 Ang**3

siesta: Pressure (static):
siesta:                Solid            Molecule  Units
siesta:           0.00116963          0.00145359  Ry/Bohr**3
siesta:           0.10739184          0.13346329  eV/Ang**3
siesta:         172.06256044        213.83407181  kBar
(Free)E+ p_basis*V_orbitals  =      -10002.237075
(Free)Eharris+ p_basis*V_orbitals  =      -10002.224213

siesta: Electric dipole (a.u.)  =    0.000000    0.000000    0.000000
siesta: Electric dipole (Debye) =    0.000000    0.000000    0.000000

* Maximum dynamic memory allocated : Node    0 =   246 MB
* Maximum dynamic memory allocated : Node    1 =    88 MB
* Maximum dynamic memory allocated : Node    2 =    92 MB
* Maximum dynamic memory allocated : Node    3 =   233 MB
* Maximum dynamic memory allocated : Node    4 =   244 MB
* Maximum dynamic memory allocated : Node    5 =    88 MB
* Maximum dynamic memory allocated : Node    6 =    91 MB
* Maximum dynamic memory allocated : Node    7 =   225 MB

* Maximum memory occured during matrixMtoO                    

timer: CPU execution times:
timer:  Routine       Calls   Time/call    Tot.time        %
timer:  siesta            1  130560.536  130560.536   100.00
timer:  Setup             1       3.040       3.040     0.00
timer:  bands             1       0.008       0.008     0.00
timer:  writewave         1       0.017       0.017     0.00
timer:  KSV_init          1       0.002       0.002     0.00
timer:  IterMD            1  130549.392  130549.392    99.99
timer:  hsparse           1       0.393       0.393     0.00
timer:  overlap           1       7.795       7.795     0.01
timer:  IterSCF          19    6858.862  130318.373    99.81
timer:  kinefsm           2       4.045       8.090     0.01
timer:  nlefsm            2      21.996      43.992     0.03
timer:  DHSCF            20     129.861    2597.213     1.99
timer:  DHSCF1            1       0.995       0.995     0.00
timer:  DHSCF2            1      45.132      45.132     0.03
timer:  REORD           162       0.010       1.640     0.00
timer:  POISON           21       2.251      47.270     0.04
timer:  DHSCF3           20     125.256    2505.125     1.92
timer:  rhoofd           20      25.471     509.428     0.39
timer:  cellXC           20       3.749      74.972     0.06
timer:  vmat             20      64.317    1286.343     0.99
timer:  MolMec            2       0.000       0.000     0.00
timer:  diagon           19    6727.745  127827.161    97.91
timer:  c-eigval       6688       6.700   44810.901    34.32
timer:  c-buildHS      6688       0.128     853.368     0.65
timer:  cdiag         13376       6.897   92258.281    70.66
timer:  cdiag1        13376       0.427    5713.654     4.38
timer:  cdiag2        13376       1.908   25520.331    19.55
timer:  cdiag3        13376       3.960   52962.740    40.57
timer:  cdiag4        13376       0.224    3002.205     2.30
timer:  c-eigvec       6688       7.299   48816.292    37.39
timer:  c-buildD       6688       5.105   34144.534    26.15
timer:  DHSCF4            1      44.887      44.887     0.03
timer:  dfscf             1      42.175      42.175     0.03
timer:  overfsm           1       0.495       0.495     0.00
timer:  optical           1       7.089       7.089     0.01
  

elaps: ELAPSED times:
elaps:  Routine       Calls   Time/call    Tot.time        %
elaps:  siesta            1   16339.470   16339.470   100.00
elaps:  Setup             1       0.379       0.379     0.00
elaps:  bands             1       0.001       0.001     0.00
elaps:  writewave         1       0.002       0.002     0.00
elaps:  KSV_init          1       0.000       0.000     0.00
elaps:  IterMD            1   16338.077   16338.077    99.99
elaps:  hsparse           1       0.049       0.049     0.00
elaps:  overlap           1       0.973       0.973     0.01
elaps:  IterSCF          19     858.378   16309.180    99.81
elaps:  kinefsm           2       0.508       1.015     0.01
elaps:  nlefsm            2       2.885       5.769     0.04
elaps:  DHSCF            20      16.461     329.229     2.01
elaps:  DHSCF1            1       0.130       0.130     0.00
elaps:  DHSCF2            1       5.641       5.641     0.03
elaps:  REORD           162       0.001       0.216     0.00
elaps:  POISON           21       0.282       5.919     0.04
elaps:  DHSCF3           20      15.670     313.403     1.92
elaps:  rhoofd           20       5.397     107.936     0.66
elaps:  cellXC           20       0.468       9.361     0.06
elaps:  vmat             20       8.046     160.921     0.98
elaps:  MolMec            2       0.000       0.000     0.00
elaps:  diagon           19     841.998   15997.959    97.91
elaps:  c-eigval       6688       0.838    5606.499    34.31
elaps:  c-buildHS      6688       0.017     116.807     0.71
elaps:  cdiag         13376       0.849   11360.176    69.53
elaps:  cdiag1        13376       0.053     706.965     4.33
elaps:  cdiag2        13376       0.239    3193.906    19.55
elaps:  cdiag3        13376       0.496    6634.889    40.61
elaps:  cdiag4        13376       0.028     378.321     2.32
elaps:  c-eigvec       6688       0.890    5950.113    36.42
elaps:  c-buildD       6688       0.663    4432.955    27.13
elaps:  DHSCF4            1       9.912       9.912     0.06
elaps:  dfscf             1       9.383       9.383     0.06
elaps:  overfsm           1       0.061       0.061     0.00
elaps:  optical           1       0.000       0.000     0.00
  
>> End of run:   4-DEC-2015  18:46:36
