Siesta Version:                                        siesta-3.2-pl-3
Architecture  : x86_64-unknown-linux-gnu--unknown
Compiler flags: mpiifort -g -O2 -fPIC -xSSE4.1 -fp-model source -shared-intel 
PARALLEL version

* Running on    8 nodes in parallel
>> Start of run:   6-DEC-2015  13:53:29

                           ***********************       
                           *  WELCOME TO SIESTA  *       
                           ***********************       

reinit: Reading from standard input
************************** Dump of input data file ****************************
#(1) General system descriptors
SystemName            GRP_doping    # Descriptive name of the system
SystemLabel           GRP_doping    # Short name for naming files
%include STRUCT.fdf
%include KPT.fdf
%include BASIS.fdf
#%include TS.fdf # for transiesta calculation
#(4) DFT, Grid, SCF
XC.functional         GGA           # LDA or GGA (default = LDA)
XC.authors            PBE           # CA (Ceperley-Aldr) = PZ
                                    #    (Perdew-Zunger) - LDA - Default
                                    # PW92 (Perdew-Wang-92) - LDA
                                    # PBE (Perdew-Burke-Ernzerhof) - GGA
MeshCutoff            200.000000    Ry      # Default: 50.0 Ry ~ 0.444 Bohr
                                    #         100.0 Ry ~ 0.314 Bohr
MaxSCFIterations      500           # Default: 50
DM.MixingWeight       0.05          # Default: 0.25
DM.NumberPulay        10            # Default: 0
DM.PulayOnFile        F             # SystemLabel.P1, SystemLabel.P2
DM.Tolerance          1.d-4         # Default: 1.d-4
DM.UseSaveDM          .true.        # because of the bug
SCFMustConverge       .true.
NeglNonOverlapInt     F             # Default: F
#(5) Eigenvalue problem: order-N or diagonalization
SolutionMethod        Diagon        # or Transiesta
ElectronicTemperature 300.0 K       # Default: 300.0 K
#(6) Molecular dynamics and relaxations
#MD.TypeOfRun          CG            # Type of dynamics:
#MD.VariableCell       F
#MD.NumCGsteps         0           # 0 for single-point / 100 for gopt
#MD.MaxCGDispl         0.2 Bohr      # Default: 0.2 Bohr
#MD.MaxForceTol        0.02 eV/Ang   # Default: 0.04 eV/Ang
#MD.MaxStressTol       1.0 GPa       # Default: 1.0 GPa
# Geometry Constraints
#%block GeometryConstraints
#	position from 1 to 44
#%endblock GeometryConstraints
************************** End of input data file *****************************

reinit: -----------------------------------------------------------------------
reinit: System Name: GRP_doping
reinit: -----------------------------------------------------------------------
reinit: System Label: GRP_doping                                                  
reinit: -----------------------------------------------------------------------

initatom: Reading input for the pseudopotentials and atomic orbitals ----------
 Species number:            1  Label: C Atomic number:           6
 Species number:            2  Label: N Atomic number:           7
Ground state valence configuration:   2s02  2p02
Reading pseudopotential information in formatted form from C.psf

Valence configuration for pseudopotential generation:
2s( 2.00) rc: 1.54
2p( 2.00) rc: 1.54
3d( 0.00) rc: 1.54
4f( 0.00) rc: 1.54
Ground state valence configuration:   2s02  2p03
Reading pseudopotential information in formatted form from N.psf

Valence configuration for pseudopotential generation:
2s( 2.00) rc: 1.48
2p( 3.00) rc: 1.48
3d( 0.00) rc: 1.48
4f( 0.00) rc: 1.48
For C, standard SIESTA heuristics set lmxkb to 3
 (one more than the basis l, including polarization orbitals).
Use PS.lmax or PS.KBprojectors blocks to override.
For N, standard SIESTA heuristics set lmxkb to 3
 (one more than the basis l, including polarization orbitals).
Use PS.lmax or PS.KBprojectors blocks to override.

<basis_specs>
===============================================================================
C                    Z=   6    Mass=  12.010        Charge= 0.17977+309
Lmxo=1 Lmxkb= 3    BasisType=split      Semic=F
L=0  Nsemic=0  Cnfigmx=2
          n=1  nzeta=2  polorb=0
            splnorm:   0.15000    
               vcte:    0.0000    
               rinn:    0.0000    
                rcs:    0.0000      0.0000    
            lambdas:    1.0000      1.0000    
L=1  Nsemic=0  Cnfigmx=2
          n=1  nzeta=2  polorb=1
            splnorm:   0.15000    
               vcte:    0.0000    
               rinn:    0.0000    
                rcs:    0.0000      0.0000    
            lambdas:    1.0000      1.0000    
-------------------------------------------------------------------------------
L=0  Nkbl=1  erefs: 0.17977+309
L=1  Nkbl=1  erefs: 0.17977+309
L=2  Nkbl=1  erefs: 0.17977+309
L=3  Nkbl=1  erefs: 0.17977+309
===============================================================================
</basis_specs>

atom: Called for C                     (Z =   6)

read_vps: Pseudopotential generation method:
read_vps: ATM3      Troullier-Martins                       
Total valence charge:    4.00000

read_vps: Pseudopotential includes a core correction:
read_vps: Pseudo-core for xc-correction

xc_check: Exchange-correlation functional:
xc_check: GGA Perdew, Burke & Ernzerhof 1996
V l=0 = -2*Zval/r beyond r=  1.5227
V l=1 = -2*Zval/r beyond r=  1.5227
V l=2 = -2*Zval/r beyond r=  1.5227
V l=3 = -2*Zval/r beyond r=  1.5038
All V_l potentials equal beyond r=  1.5227
This should be close to max(r_c) in ps generation
All pots = -2*Zval/r beyond r=  1.5227

VLOCAL1: 99.0% of the norm of Vloc inside     18.722 Ry
VLOCAL1: 99.9% of the norm of Vloc inside     42.668 Ry
atom: Maximum radius for 4*pi*r*r*local-pseudopot. charge    1.83678
atom: Maximum radius for r*vlocal+2*Zval:    1.58088
GHOST: No ghost state for L =  0
GHOST: No ghost state for L =  1
GHOST: No ghost state for L =  2
GHOST: No ghost state for L =  3

KBgen: Kleinman-Bylander projectors: 
   l= 0   rc=  1.704034   el= -1.009801   Ekb=  5.335044   kbcos=  0.316824
   l= 1   rc=  1.704034   el= -0.388707   Ekb= -3.785862   kbcos= -0.366464
   l= 2   rc=  1.791422   el=  0.001971   Ekb= -0.970471   kbcos= -0.009212
   l= 3   rc=  1.859892   el=  0.003065   Ekb= -0.399525   kbcos= -0.001223

KBgen: Total number of  Kleinman-Bylander projectors:   16
atom: -------------------------------------------------------------------------

atom: SANKEY-TYPE ORBITALS:
atom: Selected multiple-zeta basis: split     

SPLIT: Orbitals with angular momentum L= 0

SPLIT: Basis orbitals for state 2s

SPLIT: PAO cut-off radius determined from an
SPLIT: energy shift=  0.007350 Ry

   izeta = 1
                 lambda =    1.000000
                     rc =    4.632753
                 energy =   -1.002270
                kinetic =    0.855760
    potential(screened) =   -1.858031
       potential(ionic) =   -5.417575

   izeta = 2
                 rmatch =    3.431921
              splitnorm =    0.150000
                 energy =   -0.867111
                kinetic =    1.300804
    potential(screened) =   -2.167915
       potential(ionic) =   -5.962684

SPLIT: Orbitals with angular momentum L= 1

SPLIT: Basis orbitals for state 2p

SPLIT: PAO cut-off radius determined from an
SPLIT: energy shift=  0.007350 Ry

   izeta = 1
                 lambda =    1.000000
                     rc =    5.658549
                 energy =   -0.381140
                kinetic =    2.399701
    potential(screened) =   -2.780841
       potential(ionic) =   -6.206085

   izeta = 2
                 rmatch =    3.653288
              splitnorm =    0.150000
                 energy =   -0.249149
                kinetic =    3.542762
    potential(screened) =   -3.791911
       potential(ionic) =   -7.581078

POLgen: Perturbative polarization orbital with L=  2

POLgen: Polarization orbital for state 2p

   izeta = 1
                     rc =    5.658549
                 energy =    1.109913
                kinetic =    2.304789
    potential(screened) =   -1.194876
       potential(ionic) =   -4.013592
atom: Total number of Sankey-type orbitals: 13

atm_pop: Valence configuration (for local Pseudopot. screening):
 2s( 2.00)                                                            
 2p( 2.00)                                                            
Vna: chval, zval:    4.00000   4.00000

Vna:  Cut-off radius for the neutral-atom potential:   5.658549
comcore: Pseudo-core radius Rcore=  1.791422

atom: _________________________________________________________________________

<basis_specs>
===============================================================================
N                    Z=   7    Mass=  14.010        Charge= 0.17977+309
Lmxo=1 Lmxkb= 3    BasisType=split      Semic=F
L=0  Nsemic=0  Cnfigmx=2
          n=1  nzeta=2  polorb=0
            splnorm:   0.15000    
               vcte:    0.0000    
               rinn:    0.0000    
                rcs:    0.0000      0.0000    
            lambdas:    1.0000      1.0000    
L=1  Nsemic=0  Cnfigmx=2
          n=1  nzeta=2  polorb=1
            splnorm:   0.15000    
               vcte:    0.0000    
               rinn:    0.0000    
                rcs:    0.0000      0.0000    
            lambdas:    1.0000      1.0000    
-------------------------------------------------------------------------------
L=0  Nkbl=1  erefs: 0.17977+309
L=1  Nkbl=1  erefs: 0.17977+309
L=2  Nkbl=1  erefs: 0.17977+309
L=3  Nkbl=1  erefs: 0.17977+309
===============================================================================
</basis_specs>

atom: Called for N                     (Z =   7)

read_vps: Pseudopotential generation method:
read_vps: ATM3      Troullier-Martins                       
Total valence charge:    5.00000

read_vps: Pseudopotential includes a core correction:
read_vps: Pseudo-core for xc-correction

xc_check: Exchange-correlation functional:
xc_check: GGA Perdew, Burke & Ernzerhof 1996
V l=0 = -2*Zval/r beyond r=  1.4606
V l=1 = -2*Zval/r beyond r=  1.4606
V l=2 = -2*Zval/r beyond r=  1.4606
V l=3 = -2*Zval/r beyond r=  1.4606
All V_l potentials equal beyond r=  1.4606
This should be close to max(r_c) in ps generation
All pots = -2*Zval/r beyond r=  1.4606

VLOCAL1: 99.0% of the norm of Vloc inside     20.347 Ry
VLOCAL1: 99.9% of the norm of Vloc inside     46.372 Ry
atom: Maximum radius for 4*pi*r*r*local-pseudopot. charge    1.76189
atom: Maximum radius for r*vlocal+2*Zval:    1.53550
GHOST: No ghost state for L =  0
GHOST: No ghost state for L =  1
GHOST: No ghost state for L =  2
GHOST: No ghost state for L =  3

KBgen: Kleinman-Bylander projectors: 
   l= 0   rc=  1.634559   el= -1.363963   Ekb=  5.296955   kbcos=  0.335621
   l= 1   rc=  1.614250   el= -0.521451   Ekb= -5.259161   kbcos= -0.433408
   l= 2   rc=  1.718383   el=  0.001991   Ekb= -1.271464   kbcos= -0.007566
   l= 3   rc=  1.761893   el=  0.003093   Ekb= -0.494769   kbcos= -0.001015

KBgen: Total number of  Kleinman-Bylander projectors:   16
atom: -------------------------------------------------------------------------

atom: SANKEY-TYPE ORBITALS:
atom: Selected multiple-zeta basis: split     

SPLIT: Orbitals with angular momentum L= 0

SPLIT: Basis orbitals for state 2s

SPLIT: PAO cut-off radius determined from an
SPLIT: energy shift=  0.007350 Ry

   izeta = 1
                 lambda =    1.000000
                     rc =    4.071465
                 energy =   -1.356470
                kinetic =    1.176977
    potential(screened) =   -2.533447
       potential(ionic) =   -8.057990

   izeta = 2
                 rmatch =    2.905100
              splitnorm =    0.150000
                 energy =   -1.158343
                kinetic =    1.813009
    potential(screened) =   -2.971352
       potential(ionic) =   -8.901931

SPLIT: Orbitals with angular momentum L= 1

SPLIT: Basis orbitals for state 2p

SPLIT: PAO cut-off radius determined from an
SPLIT: energy shift=  0.007350 Ry

   izeta = 1
                 lambda =    1.000000
                     rc =    4.972977
                 energy =   -0.513884
                kinetic =    3.441732
    potential(screened) =   -3.955616
       potential(ionic) =   -9.287901

   izeta = 2
                 rmatch =    3.054066
              splitnorm =    0.150000
                 energy =   -0.318226
                kinetic =    5.125348
    potential(screened) =   -5.443573
       potential(ionic) =  -11.380999

POLgen: Perturbative polarization orbital with L=  2

POLgen: Polarization orbital for state 2p

   izeta = 1
                     rc =    4.972977
                 energy =    1.607437
                kinetic =    3.268125
    potential(screened) =   -1.660688
       potential(ionic) =   -5.973652
atom: Total number of Sankey-type orbitals: 13

atm_pop: Valence configuration (for local Pseudopot. screening):
 2s( 2.00)                                                            
 2p( 3.00)                                                            
Vna: chval, zval:    5.00000   5.00000

Vna:  Cut-off radius for the neutral-atom potential:   4.972977
comcore: Pseudo-core radius Rcore=  1.554824

atom: _________________________________________________________________________

prinput: Basis input ----------------------------------------------------------

PAO.BasisType split     

%block ChemicalSpeciesLabel
    1    6 C                       # Species index, atomic number, species label
    2    7 N                       # Species index, atomic number, species label
%endblock ChemicalSpeciesLabel

%block PAO.Basis                 # Define Basis set
C                     2                    # Species label, number of l-shells
 n=2   0   2                         # n, l, Nzeta 
   4.633      3.432   
   1.000      1.000   
 n=2   1   2 P   1                   # n, l, Nzeta, Polarization, NzetaPol
   5.659      3.653   
   1.000      1.000   
N                     2                    # Species label, number of l-shells
 n=2   0   2                         # n, l, Nzeta 
   4.071      2.905   
   1.000      1.000   
 n=2   1   2 P   1                   # n, l, Nzeta, Polarization, NzetaPol
   4.973      3.054   
   1.000      1.000   
%endblock PAO.Basis

prinput: ----------------------------------------------------------------------

coor:   Atomic-coordinates input format  =     Cartesian coordinates
coor:                                          (in Angstroms)

siesta: Atomic coordinates (Bohr) and species
siesta:      2.23554   1.32097   0.00000  1        1
siesta:     32.50291  13.41944   0.00000  1        2
siesta:     34.83104  14.76308   0.00000  1        3
siesta:     30.17465   9.38661   0.00000  1        4
siesta:     32.50278  10.73026   0.00000  1        5
siesta:     27.84639   5.35379   0.00000  1        6
siesta:     30.17453   6.69743   0.00000  1        7
siesta:     27.84714  21.48508   0.00000  1        8
siesta:     30.17527  22.82873   0.00000  1        9
siesta:     11.54782   1.32097   0.00000  1       10
siesta:     13.87595   2.66461   0.00000  1       11
siesta:     16.20396   1.32097   0.00000  1       12
siesta:     18.53210   2.66461   0.00000  1       13
siesta:     20.86199   1.32097   0.00000  1       14
siesta:     23.19013   2.66461   0.00000  1       15
siesta:     25.51813   1.32097   0.00000  1       16
siesta:     27.84627   2.66461   0.00000  1       17
siesta:     11.54807   6.69743   0.00000  1       18
siesta:     13.87608   5.35379   0.00000  1       19
siesta:     16.20421   6.69743   0.00000  1       20
siesta:     18.53411   5.35379   0.00000  1       21
siesta:     20.86224   6.69743   0.00000  1       22
siesta:     23.19025   5.35379   0.00000  1       23
siesta:     25.51838   6.69743   0.00000  1       24
siesta:      6.89205   9.38661   0.00000  1       25
siesta:      9.22019  10.73026   0.00000  1       26
siesta:     11.54820   9.38661   0.00000  1       27
siesta:     13.87633  10.73026   0.00000  1       28
siesta:     16.20434   9.38661   0.00000  1       29
siesta:      9.22031  13.41944   0.00000  1       30
siesta:     11.54845  14.76308   0.00000  1       31
siesta:     13.87645  13.41944   0.00000  1       32
siesta:     16.20459  14.76308   0.00000  1       33
siesta:     11.54857  17.45226   0.00000  1       34
siesta:     13.87670  18.79590   0.00000  1       35
siesta:     16.20471  17.45226   0.00000  1       36
siesta:     18.53284  18.79590   0.00000  1       37
siesta:     13.87683  21.48508   0.00000  1       38
siesta:     16.20496  22.82873   0.00000  1       39
siesta:     18.53486  21.48508   0.00000  1       40
siesta:     20.86299  22.82873   0.00000  1       41
siesta:     25.51851   9.38661   0.00000  1       42
siesta:     27.84664  10.73026   0.00000  1       43
siesta:     25.51876  14.76308   0.00000  1       44
siesta:     20.86274  17.45226   0.00000  1       45
siesta:     23.19088  18.79590   0.00000  1       46
siesta:     27.84677  13.41944   0.00000  1       47
siesta:     30.17490  14.76308   0.00000  1       48
siesta:     25.51888  17.45226   0.00000  1       49
siesta:     27.84702  18.79590   0.00000  1       50
siesta:     23.19100  21.48508   0.00000  1       51
siesta:     25.51913  22.82873   0.00000  1       52
siesta:     30.17503  17.45226   0.00000  1       53
siesta:     39.48945  22.82873   0.00000  1       54
siesta:      4.56367   2.66461   0.00000  2       55
siesta:     32.50328  21.48508   0.00000  2       56
siesta:     34.83141  22.82873   0.00000  2       57
siesta:     34.83116  17.45226   0.00000  2       58
siesta:     37.15930  18.79590   0.00000  2       59
siesta:      6.89168   1.32097   0.00000  2       60
siesta:      9.21981   2.66461   0.00000  2       61
siesta:      4.56380   5.35379   0.00000  2       62
siesta:      6.89193   6.69743   0.00000  2       63
siesta:      9.21994   5.35379   0.00000  2       64
siesta:     18.53247  10.73026   0.00000  2       65
siesta:     20.86237   9.38661   0.00000  2       66
siesta:     23.19050  10.73026   0.00000  2       67
siesta:     18.53448  13.41944   0.00000  2       68
siesta:     20.86262  14.76308   0.00000  2       69
siesta:     23.19063  13.41944   0.00000  2       70
siesta:     32.50316  18.79590   0.00000  2       71
siesta:     37.16131  21.48508   0.00000  2       72

siesta: System type = slab      

initatomlists: Number of atoms, orbitals, and projectors:     72   936  1152

siesta: ******************** Simulation parameters ****************************
siesta:
siesta: The following are some of the parameters of the simulation.
siesta: A complete list of the parameters used, including default values,
siesta: can be found in file out.fdf
siesta:
redata: Non-Collinear-spin run           =     F
redata: SpinPolarized (Up/Down) run      =     F
redata: Number of spin components        =     1
redata: Long output                      =     F
redata: Number of Atomic Species         =        2
redata: Charge density info will appear in .RHO file
redata: Write Mulliken Pop.              =     NO
redata: Mesh Cutoff                      =   200.0000  Ry
redata: Net charge of the system         =     0.0000 |e|
redata: Max. number of SCF Iter          =      500
redata: SCF convergence failure will abort job
redata: Performing Pulay mixing using    =    10 iterations
redata: Mix DM in first SCF step ?       =     F
redata: Write Pulay info on disk?        =     F
redata: Discard 1st Pulay DM after  kick =     F
redata: New DM Mixing Weight             =     0.0500
redata: New DM Occupancy tolerance       = 0.000000000001
redata: No kicks to SCF
redata: DM Mixing Weight for Kicks       =     0.5000
redata: DM Tolerance for SCF             =     0.000100
redata: Require Energy convergence for SCF =     F
redata: DM Energy tolerance for SCF      =     0.000100 eV
redata: Require Harris convergence for SCF =     F
redata: DM Harris energy tolerance for SCF =     0.000100 eV
redata: Using Saved Data (generic)   =     F
redata: Use continuation files for DM    =     T
redata: Neglect nonoverlap interactions  =     F
redata: Method of Calculation            =     Diagonalization
redata: Divide and Conquer               =     T
redata: Electronic Temperature           =     0.0019  Ry
redata: Fix the spin of the system       =     F
redata: Dynamics option                  =     Verlet MD run
redata: Initial MD time step             =        1
redata:   Final MD time step             =        1
redata: Length of MD time step           =     1.0000  fs
redata: Initial Temperature of MD run    =     0.0000  K
redata: Perform a MD quench              =     F
redata: ***********************************************************************
Total number of electrons:   306.000000
Total ionic charge:   306.000000

* ProcessorY, Blocksize:    2  24

k-point displ. along   1 input, could be:     0.00    0.50
k-point displ. along   2 input, could be:     0.00    0.50
 Kpoints in:          364 . Kpoints trimmed:          352

siesta: k-grid: Number of k-points =   352
siesta: k-grid: Cutoff (effective) =     5.000 Ang
siesta: k-grid: Supercell and displacements
siesta: k-grid:   26   0   0      0.000
siesta: k-grid:    0  26   0      0.000
siesta: k-grid:    0   0   1      0.000
Naive supercell factors:     2    2    2

superc: Internal auxiliary supercell:     2 x     2 x     2  =       8
superc: Number of atoms, orbitals, and projectors:    576   7488   9216

* Maximum dynamic memory allocated =     6 MB

siesta:                 ==============================
                            Begin MD step =      1
                        ==============================

superc: Internal auxiliary supercell:     2 x     2 x     2  =       8
superc: Number of atoms, orbitals, and projectors:    576   7488   9216

outcell: Unit cell vectors (Ang):
       14.785000    0.000000    0.000000
        7.393000   12.805052    0.000000
        0.000000    0.000000   10.000000

outcell: Cell vector modules (Ang)   :   14.785000   14.786000   10.000000
outcell: Cell angles (23,13,12) (deg):     90.0000     90.0000     60.0000
outcell: Cell volume (Ang**3)        :   1893.2269
New_DM. Step:     1
Initializing Density Matrix...

InitMesh: MESH =   120 x   120 x    90 =     1296000
InitMesh: Mesh cutoff (required, used) =   200.000   223.865 Ry

* Maximum dynamic memory allocated =   181 MB

stepf: Fermi-Dirac step function

siesta: Program's energy decomposition (eV):
siesta: Ebs     =     -4803.428977
siesta: Eions   =     21296.454266
siesta: Ena     =      4153.291591
siesta: Ekin    =      7888.785163
siesta: Enl     =      -279.169521
siesta: DEna    =        -0.000012
siesta: DUscf   =         0.000000
siesta: DUext   =         0.000000
siesta: Exc     =     -4382.831059
siesta: eta*DQ  =         0.000000
siesta: Emadel  =         0.000000
siesta: Emeta   =         0.000000
siesta: Emolmec =         0.000000
siesta: Ekinion =         0.000000
siesta: Eharris =    -13796.869507
siesta: Etot    =    -13916.378103
siesta: FreeEng =    -13916.378103

siesta: iscf   Eharris(eV)      E_KS(eV)   FreeEng(eV)   dDmax  Ef(eV)
siesta:    1   -13796.8695   -13916.3781   -13916.3781  1.8666 -4.3876
timer: Routine,Calls,Time,% = IterSCF        1    7504.034  99.84
elaps: Routine,Calls,Wall,% = IterSCF        1     939.363  99.84
siesta:    2   -14092.7653   -13713.2106   -13713.2307  0.4623 -4.9119
siesta:    3   -13807.2628   -13792.0277   -13792.0923  0.5398 -4.5522
siesta:    4   -13795.4827   -13779.1277   -13779.2989  0.4049 -3.9422
siesta:    5   -13790.7703   -13764.8673   -13765.0455  0.2960 -3.5439
siesta:    6   -13774.9976   -13763.3510   -13763.4633  0.3199 -2.6969
siesta:    7   -13772.9769   -13760.3109   -13760.3689  0.1957 -2.7999
siesta:    8   -13772.2332   -13758.6558   -13758.6943  0.1750 -2.7903
siesta:    9   -13771.9087   -13760.6618   -13760.7058  0.0930 -2.8687
siesta:   10   -13771.9108   -13761.7447   -13761.7896  0.0619 -2.9040
siesta:   11   -13771.7295   -13766.8961   -13766.9405  0.0222 -3.0427
siesta:   12   -13771.7161   -13767.0277   -13767.0757  0.0170 -3.0430
siesta:   13   -13771.6914   -13768.8037   -13768.8515  0.0128 -3.0466
siesta:   14   -13771.6846   -13769.8854   -13769.9334  0.0072 -3.0423
siesta:   15   -13771.6878   -13771.2264   -13771.2743  0.0040 -3.0427
siesta:   16   -13771.6794   -13771.9473   -13771.9954  0.0025 -3.0378
siesta:   17   -13771.6793   -13771.8297   -13771.8772  0.0012 -3.0374
siesta:   18   -13771.6791   -13771.8159   -13771.8634  0.0014 -3.0375
siesta:   19   -13771.6791   -13771.7456   -13771.7931  0.0007 -3.0378
siesta:   20   -13771.6791   -13771.7612   -13771.8086  0.0005 -3.0380
siesta:   21   -13771.6791   -13771.7412   -13771.7886  0.0004 -3.0382
siesta:   22   -13771.6791   -13771.6898   -13771.7372  0.0002 -3.0381
siesta:   23   -13771.6791   -13771.6873   -13771.7347  0.0001 -3.0379

siesta: E_KS(eV) =           -13771.6792

siesta: E_KS - E_eggbox =    -13771.6792

siesta: Atomic forces (eV/Ang):
----------------------------------------
   Tot    0.413627   -0.050526    0.000000
----------------------------------------
   Max    0.831254
   Res    0.373075    sqrt( Sum f_i^2 / 3N )
----------------------------------------
   Max    0.831254    constrained

Stress-tensor-Voigt (kbar):       12.37       12.81        0.22       -0.26        0.00        0.00
(Free)E + p*V (eV/cell)   -13781.7332
Target enthalpy (eV/cell)   -13771.7266

siesta: Stress tensor (static) (eV/Ang**3):
         0.007722   -0.000160    0.000000
        -0.000160    0.007996    0.000000
         0.000000    0.000000    0.000138

siesta: Pressure (static):         -8.46835946  kBar

siesta: Stress tensor (total) (eV/Ang**3):
         0.007722   -0.000160    0.000000
        -0.000160    0.007996    0.000000
         0.000000    0.000000    0.000138

siesta: Pressure (total):         -8.46835946  kBar

siesta: Temp_ion =       0.000 K

* Maximum dynamic memory allocated =   196 MB

siesta: Program's energy decomposition (eV):
siesta: Ebs     =     -4426.370923
siesta: Eions   =     21296.454266
siesta: Ena     =      4153.291591
siesta: Ekin    =      9336.493381
siesta: Enl     =     -1314.877096
siesta: DEna    =      -212.817031
siesta: DUscf   =        25.603217
siesta: DUext   =         0.000000
siesta: Exc     =     -4462.918977
siesta: eta*DQ  =         0.000000
siesta: Emadel  =         0.000000
siesta: Emeta   =         0.000000
siesta: Emolmec =         0.000000
siesta: Ekinion =         0.000000
siesta: Eharris =    -13771.679072
siesta: Etot    =    -13771.679181
siesta: FreeEng =    -13771.726602

siesta: Final energy (eV):
siesta:  Band Struct. =   -4426.370923
siesta:       Kinetic =    9336.493381
siesta:       Hartree =   26612.575010
siesta:    Ext. field =       0.000000
siesta:   Exch.-corr. =   -4462.918977
siesta:  Ion-electron =  -61952.712623
siesta:       Ion-ion =   16694.884027
siesta:       Ekinion =       0.000000
siesta:         Total =  -13771.679181

siesta: Atomic forces (eV/Ang):
siesta:      1    0.006252   -0.014293    0.000000
siesta:      2    0.710536    0.387400    0.000000
siesta:      3    0.012498    0.015401    0.000000
siesta:      4    0.005040   -0.809074    0.000000
siesta:      5    0.709961   -0.397265    0.000000
siesta:      6    0.707987    0.406046    0.000000
siesta:      7    0.022637   -0.013326    0.000000
siesta:      8    0.705634    0.412033    0.000000
siesta:      9    0.013514    0.007423    0.000000
siesta:     10   -0.002922   -0.013293    0.000000
siesta:     11   -0.698848   -0.421669    0.000000
siesta:     12    0.010477   -0.824699    0.000000
siesta:     13    0.733827   -0.402224    0.000000
siesta:     14   -0.026648   -0.030829    0.000000
siesta:     15   -0.707411   -0.401147    0.000000
siesta:     16    0.021088   -0.831254    0.000000
siesta:     17    0.705277   -0.420791    0.000000
siesta:     18   -0.009849   -0.010093    0.000000
siesta:     19   -0.685077    0.407072    0.000000
siesta:     20    0.024217    0.795753    0.000000
siesta:     21    0.672015    0.398069    0.000000
siesta:     22   -0.005001    0.017706    0.000000
siesta:     23   -0.691369    0.388149    0.000000
siesta:     24    0.002793    0.798361    0.000000
siesta:     25   -0.005039   -0.020480    0.000000
siesta:     26   -0.703099   -0.391743    0.000000
siesta:     27    0.014334   -0.812844    0.000000
siesta:     28    0.694482   -0.415305    0.000000
siesta:     29    0.025325    0.001484    0.000000
siesta:     30   -0.703753    0.392339    0.000000
siesta:     31    0.001251    0.800638    0.000000
siesta:     32    0.711891    0.406168    0.000000
siesta:     33    0.035265   -0.013759    0.000000
siesta:     34   -0.015133    0.004867    0.000000
siesta:     35   -0.701532   -0.417733    0.000000
siesta:     36    0.006970   -0.807089    0.000000
siesta:     37    0.733114   -0.399861    0.000000
siesta:     38   -0.670097    0.407550    0.000000
siesta:     39    0.032119    0.817744    0.000000
siesta:     40    0.670785    0.398083    0.000000
siesta:     41   -0.009794    0.029345    0.000000
siesta:     42   -0.005315    0.004964    0.000000
siesta:     43   -0.698935   -0.417832    0.000000
siesta:     44   -0.009107   -0.010690    0.000000
siesta:     45   -0.019524   -0.018481    0.000000
siesta:     46   -0.705855   -0.393394    0.000000
siesta:     47   -0.689979    0.408450    0.000000
siesta:     48   -0.005064    0.804512    0.000000
siesta:     49    0.013909   -0.812875    0.000000
siesta:     50    0.696137   -0.416720    0.000000
siesta:     51   -0.689882    0.391768    0.000000
siesta:     52    0.000040    0.816893    0.000000
siesta:     53    0.020207    0.002754    0.000000
siesta:     54   -0.032805    0.014534    0.000000
siesta:     55    0.536581    0.323785    0.000000
siesta:     56    0.543824   -0.308214    0.000000
siesta:     57    0.043069   -0.548980    0.000000
siesta:     58    0.005376    0.580688    0.000000
siesta:     59   -0.485333    0.318327    0.000000
siesta:     60    0.007528    0.565788    0.000000
siesta:     61   -0.508606    0.319999    0.000000
siesta:     62    0.532463   -0.313929    0.000000
siesta:     63    0.011400   -0.560867    0.000000
siesta:     64   -0.521876   -0.308702    0.000000
siesta:     65    0.574000    0.320677    0.000000
siesta:     66   -0.022260    0.582266    0.000000
siesta:     67   -0.509685    0.323877    0.000000
siesta:     68    0.507450   -0.303465    0.000000
siesta:     69    0.009350   -0.560210    0.000000
siesta:     70   -0.521279   -0.306294    0.000000
siesta:     71    0.540029    0.330036    0.000000
siesta:     72   -0.555947   -0.302050    0.000000
siesta: ----------------------------------------
siesta:    Tot    0.413627   -0.050526    0.000000

siesta: Stress tensor (static) (eV/Ang**3):
siesta:     0.007722   -0.000160    0.000000
siesta:    -0.000160    0.007996    0.000000
siesta:     0.000000    0.000000    0.000138

siesta: Cell volume =       1893.226895 Ang**3

siesta: Pressure (static):
siesta:                Solid            Molecule  Units
siesta:          -0.00005757         -0.00011028  Ry/Bohr**3
siesta:          -0.00528548         -0.01012565  eV/Ang**3
siesta:          -8.46835946        -16.22326101  kBar
(Free)E+ p_basis*V_orbitals  =      -13743.562329
(Free)Eharris+ p_basis*V_orbitals  =      -13743.554130

siesta: Electric dipole (a.u.)  =    0.000000    0.000000    0.000000
siesta: Electric dipole (Debye) =    0.000000    0.000000    0.000000

* Maximum dynamic memory allocated : Node    0 =   196 MB
* Maximum dynamic memory allocated : Node    1 =    73 MB
* Maximum dynamic memory allocated : Node    2 =    74 MB
* Maximum dynamic memory allocated : Node    3 =   186 MB
* Maximum dynamic memory allocated : Node    4 =   196 MB
* Maximum dynamic memory allocated : Node    5 =    72 MB
* Maximum dynamic memory allocated : Node    6 =    73 MB
* Maximum dynamic memory allocated : Node    7 =   181 MB

* Maximum memory occured during matrixMtoO                    

timer: CPU execution times:
timer:  Routine       Calls   Time/call    Tot.time        %
timer:  siesta            1  171304.600  171304.600   100.00
timer:  Setup             1       3.143       3.143     0.00
timer:  bands             1       0.010       0.010     0.00
timer:  writewave         1       0.015       0.015     0.00
timer:  KSV_init          1       0.003       0.003     0.00
timer:  IterMD            1  171293.255  171293.255    99.99
timer:  hsparse           1       0.268       0.268     0.00
timer:  overlap           1       7.688       7.688     0.00
timer:  IterSCF          23    7440.497  171131.423    99.90
timer:  kinefsm           2       3.931       7.862     0.00
timer:  nlefsm            2      18.279      36.557     0.02
timer:  DHSCF            24      84.312    2023.478     1.18
timer:  DHSCF1            1       0.804       0.804     0.00
timer:  DHSCF2            1      33.929      33.929     0.02
timer:  REORD           194       0.014       2.746     0.00
timer:  POISON           25       3.706      92.653     0.05
timer:  DHSCF3           24      81.558    1957.385     1.14
timer:  rhoofd           24      15.073     361.746     0.21
timer:  cellXC           24       3.546      85.102     0.05
timer:  vmat             24      40.824     979.765     0.57
timer:  MolMec            2       0.000       0.000     0.00
timer:  diagon           23    7354.863  169161.858    98.75
timer:  c-eigval       8096       7.213   58396.507    34.09
timer:  c-buildHS      8096       0.203    1640.458     0.96
timer:  cdiag         16192       7.391  119674.511    69.86
timer:  cdiag1        16192       0.468    7576.856     4.42
timer:  cdiag2        16192       1.980   32061.846    18.72
timer:  cdiag3        16192       4.164   67416.950    39.36
timer:  cdiag4        16192       0.246    3975.508     2.32
timer:  c-eigvec       8096       7.856   63605.543    37.13
timer:  c-buildD       8096       5.813   47065.260    27.47
timer:  DHSCF4            1      29.232      29.232     0.02
timer:  dfscf             1      27.418      27.418     0.02
timer:  overfsm           1       0.371       0.371     0.00
timer:  optical           1       7.182       7.182     0.00
  

elaps: ELAPSED times:
elaps:  Routine       Calls   Time/call    Tot.time        %
elaps:  siesta            1   21442.966   21442.966   100.00
elaps:  Setup             1       0.391       0.391     0.00
elaps:  bands             1       0.001       0.001     0.00
elaps:  writewave         1       0.002       0.002     0.00
elaps:  KSV_init          1       0.000       0.000     0.00
elaps:  IterMD            1   21441.548   21441.548    99.99
elaps:  hsparse           1       0.032       0.032     0.00
elaps:  overlap           1       0.974       0.974     0.00
elaps:  IterSCF          23     931.361   21421.300    99.90
elaps:  kinefsm           2       0.498       0.997     0.00
elaps:  nlefsm            2       2.371       4.742     0.02
elaps:  DHSCF            24      10.674     256.180     1.19
elaps:  DHSCF1            1       0.103       0.103     0.00
elaps:  DHSCF2            1       4.235       4.235     0.02
elaps:  REORD           194       0.002       0.355     0.00
elaps:  POISON           25       0.466      11.657     0.05
elaps:  DHSCF3           24      10.205     244.913     1.14
elaps:  rhoofd           24       3.276      78.612     0.37
elaps:  cellXC           24       0.443      10.627     0.05
elaps:  vmat             24       5.108     122.582     0.57
elaps:  MolMec            2       0.000       0.000     0.00
elaps:  diagon           23     920.679   21175.621    98.75
elaps:  c-eigval       8096       0.903    7307.285    34.08
elaps:  c-buildHS      8096       0.027     217.413     1.01
elaps:  cdiag         16192       0.909   14717.360    68.63
elaps:  cdiag1        16192       0.057     924.359     4.31
elaps:  cdiag2        16192       0.248    4011.810    18.71
elaps:  cdiag3        16192       0.522    8448.465    39.40
elaps:  cdiag4        16192       0.033     540.919     2.52
elaps:  c-eigvec       8096       0.955    7728.847    36.04
elaps:  c-buildD       8096       0.757    6125.971    28.57
elaps:  DHSCF4            1       6.634       6.634     0.03
elaps:  dfscf             1       6.245       6.245     0.03
elaps:  overfsm           1       0.047       0.047     0.00
elaps:  optical           1       0.000       0.000     0.00
  
>> End of run:   6-DEC-2015  19:50:52
