Siesta Version:                                        siesta-3.2-pl-3
Architecture  : x86_64-unknown-linux-gnu--unknown
Compiler flags: mpiifort -g -O2 -fPIC -xSSE4.1 -fp-model source -shared-intel 
PARALLEL version

* Running on    8 nodes in parallel
>> Start of run:   4-DEC-2015  14:13:10

                           ***********************       
                           *  WELCOME TO SIESTA  *       
                           ***********************       

reinit: Reading from standard input
************************** Dump of input data file ****************************
#(1) General system descriptors
SystemName            GRP_doping    # Descriptive name of the system
SystemLabel           GRP_doping    # Short name for naming files
%include STRUCT.fdf
%include KPT.fdf
%include BASIS.fdf
#%include TS.fdf # for transiesta calculation
#(4) DFT, Grid, SCF
XC.functional         GGA           # LDA or GGA (default = LDA)
XC.authors            PBE           # CA (Ceperley-Aldr) = PZ
                                    #    (Perdew-Zunger) - LDA - Default
                                    # PW92 (Perdew-Wang-92) - LDA
                                    # PBE (Perdew-Burke-Ernzerhof) - GGA
MeshCutoff            200.000000    Ry      # Default: 50.0 Ry ~ 0.444 Bohr
                                    #         100.0 Ry ~ 0.314 Bohr
MaxSCFIterations      500           # Default: 50
DM.MixingWeight       0.05          # Default: 0.25
DM.NumberPulay        10            # Default: 0
DM.PulayOnFile        F             # SystemLabel.P1, SystemLabel.P2
DM.Tolerance          1.d-4         # Default: 1.d-4
DM.UseSaveDM          .true.        # because of the bug
SCFMustConverge       .true.
NeglNonOverlapInt     F             # Default: F
#(5) Eigenvalue problem: order-N or diagonalization
SolutionMethod        Diagon        # or Transiesta
ElectronicTemperature 300.0 K       # Default: 300.0 K
#(6) Molecular dynamics and relaxations
#MD.TypeOfRun          CG            # Type of dynamics:
#MD.VariableCell       F
#MD.NumCGsteps         0           # 0 for single-point / 100 for gopt
#MD.MaxCGDispl         0.2 Bohr      # Default: 0.2 Bohr
#MD.MaxForceTol        0.02 eV/Ang   # Default: 0.04 eV/Ang
#MD.MaxStressTol       1.0 GPa       # Default: 1.0 GPa
# Geometry Constraints
#%block GeometryConstraints
#	position from 1 to 44
#%endblock GeometryConstraints
************************** End of input data file *****************************

reinit: -----------------------------------------------------------------------
reinit: System Name: GRP_doping
reinit: -----------------------------------------------------------------------
reinit: System Label: GRP_doping                                                  
reinit: -----------------------------------------------------------------------

initatom: Reading input for the pseudopotentials and atomic orbitals ----------
 Species number:            1  Label: B Atomic number:           5
 Species number:            2  Label: C Atomic number:           6
Ground state valence configuration:   2s02  2p01
Reading pseudopotential information in formatted form from B.psf

Valence configuration for pseudopotential generation:
2s( 2.00) rc: 1.74
2p( 1.00) rc: 1.74
3d( 0.00) rc: 1.74
4f( 0.00) rc: 1.74
Ground state valence configuration:   2s02  2p02
Reading pseudopotential information in formatted form from C.psf

Valence configuration for pseudopotential generation:
2s( 2.00) rc: 1.54
2p( 2.00) rc: 1.54
3d( 0.00) rc: 1.54
4f( 0.00) rc: 1.54
For B, standard SIESTA heuristics set lmxkb to 3
 (one more than the basis l, including polarization orbitals).
Use PS.lmax or PS.KBprojectors blocks to override.
For C, standard SIESTA heuristics set lmxkb to 3
 (one more than the basis l, including polarization orbitals).
Use PS.lmax or PS.KBprojectors blocks to override.

<basis_specs>
===============================================================================
B                    Z=   5    Mass=  10.810        Charge= 0.17977+309
Lmxo=1 Lmxkb= 3    BasisType=split      Semic=F
L=0  Nsemic=0  Cnfigmx=2
          n=1  nzeta=2  polorb=0
            splnorm:   0.15000    
               vcte:    0.0000    
               rinn:    0.0000    
                rcs:    0.0000      0.0000    
            lambdas:    1.0000      1.0000    
L=1  Nsemic=0  Cnfigmx=2
          n=1  nzeta=2  polorb=1
            splnorm:   0.15000    
               vcte:    0.0000    
               rinn:    0.0000    
                rcs:    0.0000      0.0000    
            lambdas:    1.0000      1.0000    
-------------------------------------------------------------------------------
L=0  Nkbl=1  erefs: 0.17977+309
L=1  Nkbl=1  erefs: 0.17977+309
L=2  Nkbl=1  erefs: 0.17977+309
L=3  Nkbl=1  erefs: 0.17977+309
===============================================================================
</basis_specs>

atom: Called for B                     (Z =   5)

read_vps: Pseudopotential generation method:
read_vps: ATM3      Troullier-Martins                       
Total valence charge:    3.00000

read_vps: Pseudopotential includes a core correction:
read_vps: Pseudo-core for xc-correction

xc_check: Exchange-correlation functional:
xc_check: GGA Perdew, Burke & Ernzerhof 1996
V l=0 = -2*Zval/r beyond r=  1.7165
V l=1 = -2*Zval/r beyond r=  1.7165
V l=2 = -2*Zval/r beyond r=  1.7165
V l=3 = -2*Zval/r beyond r=  1.6951
All V_l potentials equal beyond r=  1.7165
This should be close to max(r_c) in ps generation
All pots = -2*Zval/r beyond r=  1.7165

VLOCAL1: 99.0% of the norm of Vloc inside     14.733 Ry
VLOCAL1: 99.9% of the norm of Vloc inside     33.577 Ry
atom: Maximum radius for 4*pi*r*r*local-pseudopot. charge    2.04484
atom: Maximum radius for r*vlocal+2*Zval:    1.75994
GHOST: No ghost state for L =  0
GHOST: No ghost state for L =  1
GHOST: No ghost state for L =  2
GHOST: No ghost state for L =  3

KBgen: Kleinman-Bylander projectors: 
   l= 0   rc=  1.897051   el= -0.693730   Ekb=  4.595746   kbcos=  0.286105
   l= 1   rc=  1.920920   el= -0.265236   Ekb= -2.350715   kbcos= -0.315747
   l= 2   rc=  2.044840   el=  0.002055   Ekb= -0.690767   kbcos= -0.013822
   l= 3   rc=  2.149707   el=  0.003188   Ekb= -0.315358   kbcos= -0.002055

KBgen: Total number of  Kleinman-Bylander projectors:   16
atom: -------------------------------------------------------------------------

atom: SANKEY-TYPE ORBITALS:
atom: Selected multiple-zeta basis: split     

SPLIT: Orbitals with angular momentum L= 0

SPLIT: Basis orbitals for state 2s

SPLIT: PAO cut-off radius determined from an
SPLIT: energy shift=  0.007350 Ry

   izeta = 1
                 lambda =    1.000000
                     rc =    5.422032
                 energy =   -0.686029
                kinetic =    0.576707
    potential(screened) =   -1.262736
       potential(ionic) =   -3.271094

   izeta = 2
                 rmatch =    4.222573
              splitnorm =    0.150000
                 energy =   -0.602132
                kinetic =    0.858975
    potential(screened) =   -1.461107
       potential(ionic) =   -3.582536

SPLIT: Orbitals with angular momentum L= 1

SPLIT: Basis orbitals for state 2p

SPLIT: PAO cut-off radius determined from an
SPLIT: energy shift=  0.007350 Ry

   izeta = 1
                 lambda =    1.000000
                     rc =    6.790259
                 energy =   -0.258578
                kinetic =    1.481412
    potential(screened) =   -1.739989
       potential(ionic) =   -3.657461

   izeta = 2
                 rmatch =    4.608740
              splitnorm =    0.150000
                 energy =   -0.173757
                kinetic =    2.186690
    potential(screened) =   -2.360447
       potential(ionic) =   -4.464260

POLgen: Perturbative polarization orbital with L=  2

POLgen: Polarization orbital for state 2p

   izeta = 1
                     rc =    6.790259
                 energy =    0.684082
                kinetic =    1.471481
    potential(screened) =   -0.787399
       potential(ionic) =   -2.406985
atom: Total number of Sankey-type orbitals: 13

atm_pop: Valence configuration (for local Pseudopot. screening):
 2s( 2.00)                                                            
 2p( 1.00)                                                            
Vna: chval, zval:    3.00000   3.00000

Vna:  Cut-off radius for the neutral-atom potential:   6.790259
comcore: Pseudo-core radius Rcore=  2.122997

atom: _________________________________________________________________________

<basis_specs>
===============================================================================
C                    Z=   6    Mass=  12.010        Charge= 0.17977+309
Lmxo=1 Lmxkb= 3    BasisType=split      Semic=F
L=0  Nsemic=0  Cnfigmx=2
          n=1  nzeta=2  polorb=0
            splnorm:   0.15000    
               vcte:    0.0000    
               rinn:    0.0000    
                rcs:    0.0000      0.0000    
            lambdas:    1.0000      1.0000    
L=1  Nsemic=0  Cnfigmx=2
          n=1  nzeta=2  polorb=1
            splnorm:   0.15000    
               vcte:    0.0000    
               rinn:    0.0000    
                rcs:    0.0000      0.0000    
            lambdas:    1.0000      1.0000    
-------------------------------------------------------------------------------
L=0  Nkbl=1  erefs: 0.17977+309
L=1  Nkbl=1  erefs: 0.17977+309
L=2  Nkbl=1  erefs: 0.17977+309
L=3  Nkbl=1  erefs: 0.17977+309
===============================================================================
</basis_specs>

atom: Called for C                     (Z =   6)

read_vps: Pseudopotential generation method:
read_vps: ATM3      Troullier-Martins                       
Total valence charge:    4.00000

read_vps: Pseudopotential includes a core correction:
read_vps: Pseudo-core for xc-correction

xc_check: Exchange-correlation functional:
xc_check: GGA Perdew, Burke & Ernzerhof 1996
V l=0 = -2*Zval/r beyond r=  1.5227
V l=1 = -2*Zval/r beyond r=  1.5227
V l=2 = -2*Zval/r beyond r=  1.5227
V l=3 = -2*Zval/r beyond r=  1.5038
All V_l potentials equal beyond r=  1.5227
This should be close to max(r_c) in ps generation
All pots = -2*Zval/r beyond r=  1.5227

VLOCAL1: 99.0% of the norm of Vloc inside     18.722 Ry
VLOCAL1: 99.9% of the norm of Vloc inside     42.668 Ry
atom: Maximum radius for 4*pi*r*r*local-pseudopot. charge    1.83678
atom: Maximum radius for r*vlocal+2*Zval:    1.58088
GHOST: No ghost state for L =  0
GHOST: No ghost state for L =  1
GHOST: No ghost state for L =  2
GHOST: No ghost state for L =  3

KBgen: Kleinman-Bylander projectors: 
   l= 0   rc=  1.704034   el= -1.009801   Ekb=  5.335044   kbcos=  0.316824
   l= 1   rc=  1.704034   el= -0.388707   Ekb= -3.785862   kbcos= -0.366464
   l= 2   rc=  1.791422   el=  0.001971   Ekb= -0.970471   kbcos= -0.009212
   l= 3   rc=  1.859892   el=  0.003065   Ekb= -0.399525   kbcos= -0.001223

KBgen: Total number of  Kleinman-Bylander projectors:   16
atom: -------------------------------------------------------------------------

atom: SANKEY-TYPE ORBITALS:
atom: Selected multiple-zeta basis: split     

SPLIT: Orbitals with angular momentum L= 0

SPLIT: Basis orbitals for state 2s

SPLIT: PAO cut-off radius determined from an
SPLIT: energy shift=  0.007350 Ry

   izeta = 1
                 lambda =    1.000000
                     rc =    4.632753
                 energy =   -1.002270
                kinetic =    0.855760
    potential(screened) =   -1.858031
       potential(ionic) =   -5.417575

   izeta = 2
                 rmatch =    3.431921
              splitnorm =    0.150000
                 energy =   -0.867111
                kinetic =    1.300804
    potential(screened) =   -2.167915
       potential(ionic) =   -5.962684

SPLIT: Orbitals with angular momentum L= 1

SPLIT: Basis orbitals for state 2p

SPLIT: PAO cut-off radius determined from an
SPLIT: energy shift=  0.007350 Ry

   izeta = 1
                 lambda =    1.000000
                     rc =    5.658549
                 energy =   -0.381140
                kinetic =    2.399701
    potential(screened) =   -2.780841
       potential(ionic) =   -6.206085

   izeta = 2
                 rmatch =    3.653288
              splitnorm =    0.150000
                 energy =   -0.249149
                kinetic =    3.542762
    potential(screened) =   -3.791911
       potential(ionic) =   -7.581078

POLgen: Perturbative polarization orbital with L=  2

POLgen: Polarization orbital for state 2p

   izeta = 1
                     rc =    5.658549
                 energy =    1.109913
                kinetic =    2.304789
    potential(screened) =   -1.194876
       potential(ionic) =   -4.013592
atom: Total number of Sankey-type orbitals: 13

atm_pop: Valence configuration (for local Pseudopot. screening):
 2s( 2.00)                                                            
 2p( 2.00)                                                            
Vna: chval, zval:    4.00000   4.00000

Vna:  Cut-off radius for the neutral-atom potential:   5.658549
comcore: Pseudo-core radius Rcore=  1.791422

atom: _________________________________________________________________________

prinput: Basis input ----------------------------------------------------------

PAO.BasisType split     

%block ChemicalSpeciesLabel
    1    5 B                       # Species index, atomic number, species label
    2    6 C                       # Species index, atomic number, species label
%endblock ChemicalSpeciesLabel

%block PAO.Basis                 # Define Basis set
B                     2                    # Species label, number of l-shells
 n=2   0   2                         # n, l, Nzeta 
   5.422      4.223   
   1.000      1.000   
 n=2   1   2 P   1                   # n, l, Nzeta, Polarization, NzetaPol
   6.790      4.609   
   1.000      1.000   
C                     2                    # Species label, number of l-shells
 n=2   0   2                         # n, l, Nzeta 
   4.633      3.432   
   1.000      1.000   
 n=2   1   2 P   1                   # n, l, Nzeta, Polarization, NzetaPol
   5.659      3.653   
   1.000      1.000   
%endblock PAO.Basis

prinput: ----------------------------------------------------------------------

coor:   Atomic-coordinates input format  =     Cartesian coordinates
coor:                                          (in Angstroms)

siesta: Atomic coordinates (Bohr) and species
siesta:      2.23554   1.32097   0.00000  1        1
siesta:      4.56367   2.66461   0.00000  1        2
siesta:     34.83104  14.76308   0.00000  1        3
siesta:     30.17453   6.69743   0.00000  1        4
siesta:     30.17527  22.82873   0.00000  1        5
siesta:     11.54782   1.32097   0.00000  1        6
siesta:     13.87595   2.66461   0.00000  1        7
siesta:     20.86199   1.32097   0.00000  1        8
siesta:     23.19013   2.66461   0.00000  1        9
siesta:     11.54807   6.69743   0.00000  1       10
siesta:     20.86224   6.69743   0.00000  1       11
siesta:      6.89205   9.38661   0.00000  1       12
siesta:      9.22019  10.73026   0.00000  1       13
siesta:     16.20434   9.38661   0.00000  1       14
siesta:     18.53247  10.73026   0.00000  1       15
siesta:     16.20459  14.76308   0.00000  1       16
siesta:     11.54857  17.45226   0.00000  1       17
siesta:     13.87670  18.79590   0.00000  1       18
siesta:     20.86299  22.82873   0.00000  1       19
siesta:     25.51851   9.38661   0.00000  1       20
siesta:     27.84664  10.73026   0.00000  1       21
siesta:     25.51876  14.76308   0.00000  1       22
siesta:     20.86274  17.45226   0.00000  1       23
siesta:     23.19088  18.79590   0.00000  1       24
siesta:     30.17503  17.45226   0.00000  1       25
siesta:     32.50316  18.79590   0.00000  1       26
siesta:     39.48945  22.82873   0.00000  1       27
siesta:     32.50328  21.48508   0.00000  2       28
siesta:     34.83141  22.82873   0.00000  2       29
siesta:     34.83116  17.45226   0.00000  2       30
siesta:     37.15930  18.79590   0.00000  2       31
siesta:     32.50291  13.41944   0.00000  2       32
siesta:     30.17465   9.38661   0.00000  2       33
siesta:     32.50278  10.73026   0.00000  2       34
siesta:     27.84639   5.35379   0.00000  2       35
siesta:     27.84714  21.48508   0.00000  2       36
siesta:      6.89168   1.32097   0.00000  2       37
siesta:      9.21981   2.66461   0.00000  2       38
siesta:     16.20396   1.32097   0.00000  2       39
siesta:     18.53210   2.66461   0.00000  2       40
siesta:     25.51813   1.32097   0.00000  2       41
siesta:     27.84627   2.66461   0.00000  2       42
siesta:      4.56380   5.35379   0.00000  2       43
siesta:      6.89193   6.69743   0.00000  2       44
siesta:      9.21994   5.35379   0.00000  2       45
siesta:     13.87608   5.35379   0.00000  2       46
siesta:     16.20421   6.69743   0.00000  2       47
siesta:     18.53411   5.35379   0.00000  2       48
siesta:     23.19025   5.35379   0.00000  2       49
siesta:     25.51838   6.69743   0.00000  2       50
siesta:     11.54820   9.38661   0.00000  2       51
siesta:     13.87633  10.73026   0.00000  2       52
siesta:     20.86237   9.38661   0.00000  2       53
siesta:     23.19050  10.73026   0.00000  2       54
siesta:      9.22031  13.41944   0.00000  2       55
siesta:     11.54845  14.76308   0.00000  2       56
siesta:     13.87645  13.41944   0.00000  2       57
siesta:     18.53448  13.41944   0.00000  2       58
siesta:     20.86262  14.76308   0.00000  2       59
siesta:     16.20471  17.45226   0.00000  2       60
siesta:     18.53284  18.79590   0.00000  2       61
siesta:     13.87683  21.48508   0.00000  2       62
siesta:     16.20496  22.82873   0.00000  2       63
siesta:     18.53486  21.48508   0.00000  2       64
siesta:     23.19063  13.41944   0.00000  2       65
siesta:     27.84677  13.41944   0.00000  2       66
siesta:     30.17490  14.76308   0.00000  2       67
siesta:     25.51888  17.45226   0.00000  2       68
siesta:     27.84702  18.79590   0.00000  2       69
siesta:     23.19100  21.48508   0.00000  2       70
siesta:     25.51913  22.82873   0.00000  2       71
siesta:     37.16131  21.48508   0.00000  2       72

siesta: System type = slab      

initatomlists: Number of atoms, orbitals, and projectors:     72   936  1152

siesta: ******************** Simulation parameters ****************************
siesta:
siesta: The following are some of the parameters of the simulation.
siesta: A complete list of the parameters used, including default values,
siesta: can be found in file out.fdf
siesta:
redata: Non-Collinear-spin run           =     F
redata: SpinPolarized (Up/Down) run      =     F
redata: Number of spin components        =     1
redata: Long output                      =     F
redata: Number of Atomic Species         =        2
redata: Charge density info will appear in .RHO file
redata: Write Mulliken Pop.              =     NO
redata: Mesh Cutoff                      =   200.0000  Ry
redata: Net charge of the system         =     0.0000 |e|
redata: Max. number of SCF Iter          =      500
redata: SCF convergence failure will abort job
redata: Performing Pulay mixing using    =    10 iterations
redata: Mix DM in first SCF step ?       =     F
redata: Write Pulay info on disk?        =     F
redata: Discard 1st Pulay DM after  kick =     F
redata: New DM Mixing Weight             =     0.0500
redata: New DM Occupancy tolerance       = 0.000000000001
redata: No kicks to SCF
redata: DM Mixing Weight for Kicks       =     0.5000
redata: DM Tolerance for SCF             =     0.000100
redata: Require Energy convergence for SCF =     F
redata: DM Energy tolerance for SCF      =     0.000100 eV
redata: Require Harris convergence for SCF =     F
redata: DM Harris energy tolerance for SCF =     0.000100 eV
redata: Using Saved Data (generic)   =     F
redata: Use continuation files for DM    =     T
redata: Neglect nonoverlap interactions  =     F
redata: Method of Calculation            =     Diagonalization
redata: Divide and Conquer               =     T
redata: Electronic Temperature           =     0.0019  Ry
redata: Fix the spin of the system       =     F
redata: Dynamics option                  =     Verlet MD run
redata: Initial MD time step             =        1
redata:   Final MD time step             =        1
redata: Length of MD time step           =     1.0000  fs
redata: Initial Temperature of MD run    =     0.0000  K
redata: Perform a MD quench              =     F
redata: ***********************************************************************
Total number of electrons:   261.000000
Total ionic charge:   261.000000

* ProcessorY, Blocksize:    2  24

k-point displ. along   1 input, could be:     0.00    0.50
k-point displ. along   2 input, could be:     0.00    0.50
 Kpoints in:          364 . Kpoints trimmed:          352

siesta: k-grid: Number of k-points =   352
siesta: k-grid: Cutoff (effective) =     5.000 Ang
siesta: k-grid: Supercell and displacements
siesta: k-grid:   26   0   0      0.000
siesta: k-grid:    0  26   0      0.000
siesta: k-grid:    0   0   1      0.000
Naive supercell factors:     2    2    2

superc: Internal auxiliary supercell:     2 x     2 x     2  =       8
superc: Number of atoms, orbitals, and projectors:    576   7488   9216

* Maximum dynamic memory allocated =     6 MB

siesta:                 ==============================
                            Begin MD step =      1
                        ==============================

superc: Internal auxiliary supercell:     2 x     2 x     2  =       8
superc: Number of atoms, orbitals, and projectors:    576   7488   9216

outcell: Unit cell vectors (Ang):
       14.785000    0.000000    0.000000
        7.393000   12.805052    0.000000
        0.000000    0.000000   10.000000

outcell: Cell vector modules (Ang)   :   14.785000   14.786000   10.000000
outcell: Cell angles (23,13,12) (deg):     90.0000     90.0000     60.0000
outcell: Cell volume (Ang**3)        :   1893.2269
New_DM. Step:     1
Initializing Density Matrix...

InitMesh: MESH =   120 x   120 x    90 =     1296000
InitMesh: Mesh cutoff (required, used) =   200.000   223.865 Ry

* Maximum dynamic memory allocated =   231 MB

stepf: Fermi-Dirac step function

siesta: Program's energy decomposition (eV):
siesta: Ebs     =     -4193.443995
siesta: Eions   =     14945.479869
siesta: Ena     =      3357.638837
siesta: Ekin    =      4954.252969
siesta: Enl     =       454.358833
siesta: DEna    =        -0.000005
siesta: DUscf   =         0.000000
siesta: DUext   =         0.000000
siesta: Exc     =     -4005.510212
siesta: eta*DQ  =         0.000000
siesta: Emadel  =         0.000000
siesta: Emeta   =         0.000000
siesta: Emolmec =         0.000000
siesta: Ekinion =         0.000000
siesta: Eharris =    -10091.994183
siesta: Etot    =    -10184.739446
siesta: FreeEng =    -10184.739446

siesta: iscf   Eharris(eV)      E_KS(eV)   FreeEng(eV)   dDmax  Ef(eV)
siesta:    1   -10091.9942   -10184.7394   -10184.7394  1.8635 -9.5151
timer: Routine,Calls,Time,% = IterSCF        1    8502.324  99.86
elaps: Routine,Calls,Wall,% = IterSCF        1    1064.643  99.86
siesta:    2   -10085.4587   -10019.3368   -10019.3740  0.9216 -3.6739
siesta:    3   -10052.6114   -10097.8791   -10097.9567  0.7735 -6.2750
siesta:    4   -10053.3969   -10096.6963   -10096.7272  0.7692 -6.1712
siesta:    5   -10053.9510   -10065.7517   -10065.7793  0.2619 -6.4500
siesta:    6   -10051.8571   -10054.2092   -10054.2463  0.1309 -6.1441
siesta:    7   -10049.6794   -10050.3804   -10050.4153  0.0448 -6.2702
siesta:    8   -10049.3763   -10048.4724   -10048.5090  0.0104 -6.3460
siesta:    9   -10049.3506   -10048.7173   -10048.7557  0.0111 -6.3452
siesta:   10   -10049.3445   -10048.9145   -10048.9525  0.0079 -6.3381
siesta:   11   -10049.3421   -10049.0628   -10049.1007  0.0060 -6.3297
siesta:   12   -10049.3400   -10049.2946   -10049.3325  0.0029 -6.3177
siesta:   13   -10049.3398   -10049.3415   -10049.3794  0.0019 -6.3142
siesta:   14   -10049.3395   -10049.3666   -10049.4045  0.0007 -6.3119
siesta:   15   -10049.3395   -10049.3600   -10049.3980  0.0003 -6.3122
siesta:   16   -10049.3395   -10049.3546   -10049.3925  0.0003 -6.3123
siesta:   17   -10049.3394   -10049.3514   -10049.3894  0.0002 -6.3131
siesta:   18   -10049.3394   -10049.3512   -10049.3891  0.0002 -6.3133
siesta:   19   -10049.3394   -10049.3462   -10049.3842  0.0001 -6.3133
siesta:   20   -10049.3394   -10049.3448   -10049.3828  0.0001 -6.3135

siesta: E_KS(eV) =           -10049.3407

siesta: E_KS - E_eggbox =    -10049.3407

siesta: Atomic forces (eV/Ang):
----------------------------------------
   Tot    0.294551   -0.048457    0.000000
----------------------------------------
   Max    4.635510
   Res    2.418104    sqrt( Sum f_i^2 / 3N )
----------------------------------------
   Max    4.635510    constrained

Stress-tensor-Voigt (kbar):     -262.67     -264.43       -0.72        2.28        0.00        0.00
(Free)E + p*V (eV/cell)    -9841.4804
Target enthalpy (eV/cell)   -10049.3787

siesta: Stress tensor (static) (eV/Ang**3):
        -0.163941    0.001423    0.000000
         0.001423   -0.165045    0.000000
         0.000000    0.000000   -0.000449

siesta: Pressure (static):        175.93951790  kBar

siesta: Stress tensor (total) (eV/Ang**3):
        -0.163941    0.001423    0.000000
         0.001423   -0.165045    0.000000
         0.000000    0.000000   -0.000449

siesta: Pressure (total):        175.93951790  kBar

siesta: Temp_ion =       0.000 K

* Maximum dynamic memory allocated =   246 MB

siesta: Program's energy decomposition (eV):
siesta: Ebs     =     -3295.863583
siesta: Eions   =     14945.479869
siesta: Ena     =      3357.638837
siesta: Ekin    =      6509.269855
siesta: Enl     =      -481.759281
siesta: DEna    =      -406.021457
siesta: DUscf   =        45.943989
siesta: DUext   =         0.000000
siesta: Exc     =     -4128.932773
siesta: eta*DQ  =         0.000000
siesta: Emadel  =         0.000000
siesta: Emeta   =         0.000000
siesta: Emolmec =         0.000000
siesta: Ekinion =         0.000000
siesta: Eharris =    -10049.339430
siesta: Etot    =    -10049.340699
siesta: FreeEng =    -10049.378670

siesta: Final energy (eV):
siesta:  Band Struct. =   -3295.863583
siesta:       Kinetic =    6509.269855
siesta:       Hartree =   18849.093962
siesta:    Ext. field =       0.000000
siesta:   Exch.-corr. =   -4128.932773
siesta:  Ion-electron =  -43530.276178
siesta:       Ion-ion =   12251.504435
siesta:       Ekinion =       0.000000
siesta:         Total =  -10049.340699

siesta: Atomic forces (eV/Ang):
siesta:      1   -4.029849   -2.337306    0.000000
siesta:      2    4.608558    2.661788    0.000000
siesta:      3    0.255761    0.136233    0.000000
siesta:      4    0.255606    0.135005    0.000000
siesta:      5    0.239119    0.168968    0.000000
siesta:      6   -4.017493   -2.343400    0.000000
siesta:      7    4.612395    2.660449    0.000000
siesta:      8   -4.044392   -2.329153    0.000000
siesta:      9    4.605138    2.660156    0.000000
siesta:     10    0.240864    0.142763    0.000000
siesta:     11    0.231942    0.141526    0.000000
siesta:     12   -4.032083   -2.311067    0.000000
siesta:     13    4.610019    2.664972    0.000000
siesta:     14   -4.006560   -2.320680    0.000000
siesta:     15    4.635510    2.649896    0.000000
siesta:     16    0.269241    0.127627    0.000000
siesta:     17   -4.029156   -2.312390    0.000000
siesta:     18    4.607060    2.664053    0.000000
siesta:     19    0.236697    0.165033    0.000000
siesta:     20   -4.015790   -2.319209    0.000000
siesta:     21    4.612100    2.665012    0.000000
siesta:     22    0.240492    0.143265    0.000000
siesta:     23   -4.044143   -2.303578    0.000000
siesta:     24    4.609931    2.664516    0.000000
siesta:     25   -4.017348   -2.319430    0.000000
siesta:     26    4.610206    2.665462    0.000000
siesta:     27    0.217645    0.174192    0.000000
siesta:     28    3.753066    1.611254    0.000000
siesta:     29   -0.171107   -4.371678    0.000000
siesta:     30    3.277936    2.425166    0.000000
siesta:     31   -3.888451    2.025834    0.000000
siesta:     32   -3.718021   -2.168433    0.000000
siesta:     33    3.274984    2.423086    0.000000
siesta:     34   -3.893494    2.024010    0.000000
siesta:     35   -3.717637   -2.166550    0.000000
siesta:     36   -3.720695   -2.163073    0.000000
siesta:     37    3.273581    2.398444    0.000000
siesta:     38   -3.907137    2.028513    0.000000
siesta:     39    3.280894    2.401298    0.000000
siesta:     40   -3.874098    2.012849    0.000000
siesta:     41    3.277925    2.401309    0.000000
siesta:     42   -3.896989    2.021111    0.000000
siesta:     43    3.729033    1.612239    0.000000
siesta:     44   -0.194534   -4.388311    0.000000
siesta:     45   -3.720673   -2.165693    0.000000
siesta:     46    3.751087    1.605729    0.000000
siesta:     47   -0.172824   -4.397551    0.000000
siesta:     48   -3.751069   -2.158914    0.000000
siesta:     49    3.747574    1.605600    0.000000
siesta:     50   -0.194541   -4.388839    0.000000
siesta:     51    3.273934    2.424595    0.000000
siesta:     52   -3.911673    2.031963    0.000000
siesta:     53    3.251251    2.441229    0.000000
siesta:     54   -3.917611    2.030862    0.000000
siesta:     55    3.729982    1.613082    0.000000
siesta:     56   -0.196774   -4.387840    0.000000
siesta:     57   -3.714131   -2.167997    0.000000
siesta:     58    3.719648    1.622488    0.000000
siesta:     59   -0.204554   -4.388973    0.000000
siesta:     60    3.284397    2.425872    0.000000
siesta:     61   -3.873228    2.015128    0.000000
siesta:     62    3.772315    1.602295    0.000000
siesta:     63   -0.168067   -4.372138    0.000000
siesta:     64   -3.752269   -2.156493    0.000000
siesta:     65   -3.716514   -2.166812    0.000000
siesta:     66    3.743102    1.604299    0.000000
siesta:     67   -0.192047   -4.387999    0.000000
siesta:     68    3.272244    2.424365    0.000000
siesta:     69   -3.907732    2.031972    0.000000
siesta:     70    3.742855    1.609247    0.000000
siesta:     71   -0.192415   -4.363996    0.000000
siesta:     72   -3.754439   -2.155705    0.000000
siesta: ----------------------------------------
siesta:    Tot    0.294551   -0.048457    0.000000

siesta: Stress tensor (static) (eV/Ang**3):
siesta:    -0.163941    0.001423    0.000000
siesta:     0.001423   -0.165045    0.000000
siesta:     0.000000    0.000000   -0.000449

siesta: Cell volume =       1893.226895 Ang**3

siesta: Pressure (static):
siesta:                Solid            Molecule  Units
siesta:           0.00119599          0.00152190  Ry/Bohr**3
siesta:           0.10981162          0.13973567  eV/Ang**3
siesta:         175.93951790        223.88364780  kBar
(Free)E+ p_basis*V_orbitals  =      -10010.110312
(Free)Eharris+ p_basis*V_orbitals  =      -10010.104948

siesta: Electric dipole (a.u.)  =    0.000000    0.000000    0.000000
siesta: Electric dipole (Debye) =    0.000000    0.000000    0.000000

* Maximum dynamic memory allocated : Node    0 =   244 MB
* Maximum dynamic memory allocated : Node    1 =    88 MB
* Maximum dynamic memory allocated : Node    2 =    92 MB
* Maximum dynamic memory allocated : Node    3 =   231 MB
* Maximum dynamic memory allocated : Node    4 =   246 MB
* Maximum dynamic memory allocated : Node    5 =    88 MB
* Maximum dynamic memory allocated : Node    6 =    91 MB
* Maximum dynamic memory allocated : Node    7 =   226 MB

* Maximum memory occured during matrixMtoO                    

timer: CPU execution times:
timer:  Routine       Calls   Time/call    Tot.time        %
timer:  siesta            1  169575.651  169575.651   100.00
timer:  Setup             1       3.136       3.136     0.00
timer:  bands             1       0.008       0.008     0.00
timer:  writewave         1       0.015       0.015     0.00
timer:  KSV_init          1       0.002       0.002     0.00
timer:  IterMD            1  169564.313  169564.313    99.99
timer:  hsparse           1       0.403       0.403     0.00
timer:  overlap           1       7.803       7.803     0.00
timer:  IterSCF          20    8466.293  169325.865    99.85
timer:  kinefsm           2       4.052       8.104     0.00
timer:  nlefsm            2      21.718      43.437     0.03
timer:  DHSCF            21     130.461    2739.677     1.62
timer:  DHSCF1            1       1.047       1.047     0.00
timer:  DHSCF2            1      46.768      46.768     0.03
timer:  REORD           170       0.014       2.338     0.00
timer:  POISON           22       3.695      81.284     0.05
timer:  DHSCF3           21     125.955    2645.048     1.56
timer:  rhoofd           21      25.114     527.387     0.31
timer:  cellXC           21       3.587      75.328     0.04
timer:  vmat             21      64.800    1360.796     0.80
timer:  MolMec            2       0.000       0.000     0.00
timer:  diagon           20    8334.812  166696.243    98.30
timer:  c-eigval       7040       7.228   50882.994    30.01
timer:  c-buildHS      7040       0.219    1544.232     0.91
timer:  cdiag         14080       7.408  104310.495    61.51
timer:  cdiag1        14080       0.463    6513.777     3.84
timer:  cdiag2        14080       1.981   27888.502    16.45
timer:  cdiag3        14080       4.159   58563.998    34.54
timer:  cdiag4        14080       0.269    3792.408     2.24
timer:  c-eigvec       7040       7.892   55560.058    32.76
timer:  c-buildD       7040       8.547   60171.746    35.48
timer:  DHSCF4            1      44.979      44.979     0.03
timer:  dfscf             1      42.264      42.264     0.02
timer:  overfsm           1       0.494       0.494     0.00
timer:  optical           1       7.174       7.174     0.00
  

elaps: ELAPSED times:
elaps:  Routine       Calls   Time/call    Tot.time        %
elaps:  siesta            1   21233.445   21233.445   100.00
elaps:  Setup             1       0.391       0.391     0.00
elaps:  bands             1       0.001       0.001     0.00
elaps:  writewave         1       0.002       0.002     0.00
elaps:  KSV_init          1       0.000       0.000     0.00
elaps:  IterMD            1   21232.028   21232.028    99.99
elaps:  hsparse           1       0.049       0.049     0.00
elaps:  overlap           1       0.983       0.983     0.00
elaps:  IterSCF          20    1060.110   21202.195    99.85
elaps:  kinefsm           2       0.511       1.022     0.00
elaps:  nlefsm            2       2.806       5.611     0.03
elaps:  DHSCF            21      16.532     347.165     1.63
elaps:  DHSCF1            1       0.137       0.137     0.00
elaps:  DHSCF2            1       5.848       5.848     0.03
elaps:  REORD           170       0.002       0.321     0.00
elaps:  POISON           22       0.463      10.186     0.05
elaps:  DHSCF3           21      15.758     330.919     1.56
elaps:  rhoofd           21       5.344     112.220     0.53
elaps:  cellXC           21       0.448       9.403     0.04
elaps:  vmat             21       8.107     170.245     0.80
elaps:  MolMec            2       0.000       0.000     0.00
elaps:  diagon           20    1043.691   20873.822    98.31
elaps:  c-eigval       7040       0.904    6367.174    29.99
elaps:  c-buildHS      7040       0.029     204.221     0.96
elaps:  cdiag         14080       0.910   12814.586    60.35
elaps:  cdiag1        14080       0.057     806.524     3.80
elaps:  cdiag2        14080       0.248    3489.402    16.43
elaps:  cdiag3        14080       0.521    7339.123    34.56
elaps:  cdiag4        14080       0.035     491.400     2.31
elaps:  c-eigvec       7040       0.958    6743.256    31.76
elaps:  c-buildD       7040       1.101    7752.223    36.51
elaps:  DHSCF4            1      10.002      10.002     0.05
elaps:  dfscf             1       9.482       9.482     0.04
elaps:  overfsm           1       0.063       0.063     0.00
elaps:  optical           1       0.000       0.000     0.00
  
>> End of run:   4-DEC-2015  20:07:03
