Siesta Version:                                        siesta-3.2-pl-3
Architecture  : x86_64-unknown-linux-gnu--unknown
Compiler flags: mpiifort -g -O2 -fPIC -xSSE4.1 -fp-model source -shared-intel 
PARALLEL version

* Running on    8 nodes in parallel
>> Start of run:  30-NOV-2015  22:54:56

                           ***********************       
                           *  WELCOME TO SIESTA  *       
                           ***********************       

reinit: Reading from standard input
************************** Dump of input data file ****************************
#(1) General system descriptors
SystemName            GRP_doping    # Descriptive name of the system
SystemLabel           GRP_doping    # Short name for naming files
%include STRUCT.fdf
%include KPT.fdf
%include BASIS.fdf
#%include TS.fdf # for transiesta calculation
#(4) DFT, Grid, SCF
XC.functional         GGA           # LDA or GGA (default = LDA)
XC.authors            PBE           # CA (Ceperley-Aldr) = PZ
                                    #    (Perdew-Zunger) - LDA - Default
                                    # PW92 (Perdew-Wang-92) - LDA
                                    # PBE (Perdew-Burke-Ernzerhof) - GGA
MeshCutoff            200.000000    Ry      # Default: 50.0 Ry ~ 0.444 Bohr
                                    #         100.0 Ry ~ 0.314 Bohr
MaxSCFIterations      500           # Default: 50
DM.MixingWeight       0.05          # Default: 0.25
DM.NumberPulay        10            # Default: 0
DM.PulayOnFile        F             # SystemLabel.P1, SystemLabel.P2
DM.Tolerance          1.d-4         # Default: 1.d-4
DM.UseSaveDM          .true.        # because of the bug
SCFMustConverge       .true.
NeglNonOverlapInt     F             # Default: F
#(5) Eigenvalue problem: order-N or diagonalization
SolutionMethod        Diagon        # or Transiesta
ElectronicTemperature 300.0 K       # Default: 300.0 K
#(6) Molecular dynamics and relaxations
#MD.TypeOfRun          CG            # Type of dynamics:
#MD.VariableCell       F
#MD.NumCGsteps         0           # 0 for single-point / 100 for gopt
#MD.MaxCGDispl         0.2 Bohr      # Default: 0.2 Bohr
#MD.MaxForceTol        0.02 eV/Ang   # Default: 0.04 eV/Ang
#MD.MaxStressTol       1.0 GPa       # Default: 1.0 GPa
# Geometry Constraints
#%block GeometryConstraints
#	position from 1 to 44
#%endblock GeometryConstraints
************************** End of input data file *****************************

reinit: -----------------------------------------------------------------------
reinit: System Name: GRP_doping
reinit: -----------------------------------------------------------------------
reinit: System Label: GRP_doping                                                  
reinit: -----------------------------------------------------------------------

initatom: Reading input for the pseudopotentials and atomic orbitals ----------
 Species number:            1  Label: C Atomic number:           6
 Species number:            2  Label: N Atomic number:           7
Ground state valence configuration:   2s02  2p02
Reading pseudopotential information in formatted form from C.psf

Valence configuration for pseudopotential generation:
2s( 2.00) rc: 1.54
2p( 2.00) rc: 1.54
3d( 0.00) rc: 1.54
4f( 0.00) rc: 1.54
Ground state valence configuration:   2s02  2p03
Reading pseudopotential information in formatted form from N.psf

Valence configuration for pseudopotential generation:
2s( 2.00) rc: 1.48
2p( 3.00) rc: 1.48
3d( 0.00) rc: 1.48
4f( 0.00) rc: 1.48
For C, standard SIESTA heuristics set lmxkb to 3
 (one more than the basis l, including polarization orbitals).
Use PS.lmax or PS.KBprojectors blocks to override.
For N, standard SIESTA heuristics set lmxkb to 3
 (one more than the basis l, including polarization orbitals).
Use PS.lmax or PS.KBprojectors blocks to override.

<basis_specs>
===============================================================================
C                    Z=   6    Mass=  12.010        Charge= 0.17977+309
Lmxo=1 Lmxkb= 3    BasisType=split      Semic=F
L=0  Nsemic=0  Cnfigmx=2
          n=1  nzeta=2  polorb=0
            splnorm:   0.15000    
               vcte:    0.0000    
               rinn:    0.0000    
                rcs:    0.0000      0.0000    
            lambdas:    1.0000      1.0000    
L=1  Nsemic=0  Cnfigmx=2
          n=1  nzeta=2  polorb=1
            splnorm:   0.15000    
               vcte:    0.0000    
               rinn:    0.0000    
                rcs:    0.0000      0.0000    
            lambdas:    1.0000      1.0000    
-------------------------------------------------------------------------------
L=0  Nkbl=1  erefs: 0.17977+309
L=1  Nkbl=1  erefs: 0.17977+309
L=2  Nkbl=1  erefs: 0.17977+309
L=3  Nkbl=1  erefs: 0.17977+309
===============================================================================
</basis_specs>

atom: Called for C                     (Z =   6)

read_vps: Pseudopotential generation method:
read_vps: ATM3      Troullier-Martins                       
Total valence charge:    4.00000

read_vps: Pseudopotential includes a core correction:
read_vps: Pseudo-core for xc-correction

xc_check: Exchange-correlation functional:
xc_check: GGA Perdew, Burke & Ernzerhof 1996
V l=0 = -2*Zval/r beyond r=  1.5227
V l=1 = -2*Zval/r beyond r=  1.5227
V l=2 = -2*Zval/r beyond r=  1.5227
V l=3 = -2*Zval/r beyond r=  1.5038
All V_l potentials equal beyond r=  1.5227
This should be close to max(r_c) in ps generation
All pots = -2*Zval/r beyond r=  1.5227

VLOCAL1: 99.0% of the norm of Vloc inside     18.722 Ry
VLOCAL1: 99.9% of the norm of Vloc inside     42.668 Ry
atom: Maximum radius for 4*pi*r*r*local-pseudopot. charge    1.83678
atom: Maximum radius for r*vlocal+2*Zval:    1.58088
GHOST: No ghost state for L =  0
GHOST: No ghost state for L =  1
GHOST: No ghost state for L =  2
GHOST: No ghost state for L =  3

KBgen: Kleinman-Bylander projectors: 
   l= 0   rc=  1.704034   el= -1.009801   Ekb=  5.335044   kbcos=  0.316824
   l= 1   rc=  1.704034   el= -0.388707   Ekb= -3.785862   kbcos= -0.366464
   l= 2   rc=  1.791422   el=  0.001971   Ekb= -0.970471   kbcos= -0.009212
   l= 3   rc=  1.859892   el=  0.003065   Ekb= -0.399525   kbcos= -0.001223

KBgen: Total number of  Kleinman-Bylander projectors:   16
atom: -------------------------------------------------------------------------

atom: SANKEY-TYPE ORBITALS:
atom: Selected multiple-zeta basis: split     

SPLIT: Orbitals with angular momentum L= 0

SPLIT: Basis orbitals for state 2s

SPLIT: PAO cut-off radius determined from an
SPLIT: energy shift=  0.007350 Ry

   izeta = 1
                 lambda =    1.000000
                     rc =    4.632753
                 energy =   -1.002270
                kinetic =    0.855760
    potential(screened) =   -1.858031
       potential(ionic) =   -5.417575

   izeta = 2
                 rmatch =    3.431921
              splitnorm =    0.150000
                 energy =   -0.867111
                kinetic =    1.300804
    potential(screened) =   -2.167915
       potential(ionic) =   -5.962684

SPLIT: Orbitals with angular momentum L= 1

SPLIT: Basis orbitals for state 2p

SPLIT: PAO cut-off radius determined from an
SPLIT: energy shift=  0.007350 Ry

   izeta = 1
                 lambda =    1.000000
                     rc =    5.658549
                 energy =   -0.381140
                kinetic =    2.399701
    potential(screened) =   -2.780841
       potential(ionic) =   -6.206085

   izeta = 2
                 rmatch =    3.653288
              splitnorm =    0.150000
                 energy =   -0.249149
                kinetic =    3.542762
    potential(screened) =   -3.791911
       potential(ionic) =   -7.581078

POLgen: Perturbative polarization orbital with L=  2

POLgen: Polarization orbital for state 2p

   izeta = 1
                     rc =    5.658549
                 energy =    1.109913
                kinetic =    2.304789
    potential(screened) =   -1.194876
       potential(ionic) =   -4.013592
atom: Total number of Sankey-type orbitals: 13

atm_pop: Valence configuration (for local Pseudopot. screening):
 2s( 2.00)                                                            
 2p( 2.00)                                                            
Vna: chval, zval:    4.00000   4.00000

Vna:  Cut-off radius for the neutral-atom potential:   5.658549
comcore: Pseudo-core radius Rcore=  1.791422

atom: _________________________________________________________________________

<basis_specs>
===============================================================================
N                    Z=   7    Mass=  14.010        Charge= 0.17977+309
Lmxo=1 Lmxkb= 3    BasisType=split      Semic=F
L=0  Nsemic=0  Cnfigmx=2
          n=1  nzeta=2  polorb=0
            splnorm:   0.15000    
               vcte:    0.0000    
               rinn:    0.0000    
                rcs:    0.0000      0.0000    
            lambdas:    1.0000      1.0000    
L=1  Nsemic=0  Cnfigmx=2
          n=1  nzeta=2  polorb=1
            splnorm:   0.15000    
               vcte:    0.0000    
               rinn:    0.0000    
                rcs:    0.0000      0.0000    
            lambdas:    1.0000      1.0000    
-------------------------------------------------------------------------------
L=0  Nkbl=1  erefs: 0.17977+309
L=1  Nkbl=1  erefs: 0.17977+309
L=2  Nkbl=1  erefs: 0.17977+309
L=3  Nkbl=1  erefs: 0.17977+309
===============================================================================
</basis_specs>

atom: Called for N                     (Z =   7)

read_vps: Pseudopotential generation method:
read_vps: ATM3      Troullier-Martins                       
Total valence charge:    5.00000

read_vps: Pseudopotential includes a core correction:
read_vps: Pseudo-core for xc-correction

xc_check: Exchange-correlation functional:
xc_check: GGA Perdew, Burke & Ernzerhof 1996
V l=0 = -2*Zval/r beyond r=  1.4606
V l=1 = -2*Zval/r beyond r=  1.4606
V l=2 = -2*Zval/r beyond r=  1.4606
V l=3 = -2*Zval/r beyond r=  1.4606
All V_l potentials equal beyond r=  1.4606
This should be close to max(r_c) in ps generation
All pots = -2*Zval/r beyond r=  1.4606

VLOCAL1: 99.0% of the norm of Vloc inside     20.347 Ry
VLOCAL1: 99.9% of the norm of Vloc inside     46.372 Ry
atom: Maximum radius for 4*pi*r*r*local-pseudopot. charge    1.76189
atom: Maximum radius for r*vlocal+2*Zval:    1.53550
GHOST: No ghost state for L =  0
GHOST: No ghost state for L =  1
GHOST: No ghost state for L =  2
GHOST: No ghost state for L =  3

KBgen: Kleinman-Bylander projectors: 
   l= 0   rc=  1.634559   el= -1.363963   Ekb=  5.296955   kbcos=  0.335621
   l= 1   rc=  1.614250   el= -0.521451   Ekb= -5.259161   kbcos= -0.433408
   l= 2   rc=  1.718383   el=  0.001991   Ekb= -1.271464   kbcos= -0.007566
   l= 3   rc=  1.761893   el=  0.003093   Ekb= -0.494769   kbcos= -0.001015

KBgen: Total number of  Kleinman-Bylander projectors:   16
atom: -------------------------------------------------------------------------

atom: SANKEY-TYPE ORBITALS:
atom: Selected multiple-zeta basis: split     

SPLIT: Orbitals with angular momentum L= 0

SPLIT: Basis orbitals for state 2s

SPLIT: PAO cut-off radius determined from an
SPLIT: energy shift=  0.007350 Ry

   izeta = 1
                 lambda =    1.000000
                     rc =    4.071465
                 energy =   -1.356470
                kinetic =    1.176977
    potential(screened) =   -2.533447
       potential(ionic) =   -8.057990

   izeta = 2
                 rmatch =    2.905100
              splitnorm =    0.150000
                 energy =   -1.158343
                kinetic =    1.813009
    potential(screened) =   -2.971352
       potential(ionic) =   -8.901931

SPLIT: Orbitals with angular momentum L= 1

SPLIT: Basis orbitals for state 2p

SPLIT: PAO cut-off radius determined from an
SPLIT: energy shift=  0.007350 Ry

   izeta = 1
                 lambda =    1.000000
                     rc =    4.972977
                 energy =   -0.513884
                kinetic =    3.441732
    potential(screened) =   -3.955616
       potential(ionic) =   -9.287901

   izeta = 2
                 rmatch =    3.054066
              splitnorm =    0.150000
                 energy =   -0.318226
                kinetic =    5.125348
    potential(screened) =   -5.443573
       potential(ionic) =  -11.380999

POLgen: Perturbative polarization orbital with L=  2

POLgen: Polarization orbital for state 2p

   izeta = 1
                     rc =    4.972977
                 energy =    1.607437
                kinetic =    3.268125
    potential(screened) =   -1.660688
       potential(ionic) =   -5.973652
atom: Total number of Sankey-type orbitals: 13

atm_pop: Valence configuration (for local Pseudopot. screening):
 2s( 2.00)                                                            
 2p( 3.00)                                                            
Vna: chval, zval:    5.00000   5.00000

Vna:  Cut-off radius for the neutral-atom potential:   4.972977
comcore: Pseudo-core radius Rcore=  1.554824

atom: _________________________________________________________________________

prinput: Basis input ----------------------------------------------------------

PAO.BasisType split     

%block ChemicalSpeciesLabel
    1    6 C                       # Species index, atomic number, species label
    2    7 N                       # Species index, atomic number, species label
%endblock ChemicalSpeciesLabel

%block PAO.Basis                 # Define Basis set
C                     2                    # Species label, number of l-shells
 n=2   0   2                         # n, l, Nzeta 
   4.633      3.432   
   1.000      1.000   
 n=2   1   2 P   1                   # n, l, Nzeta, Polarization, NzetaPol
   5.659      3.653   
   1.000      1.000   
N                     2                    # Species label, number of l-shells
 n=2   0   2                         # n, l, Nzeta 
   4.071      2.905   
   1.000      1.000   
 n=2   1   2 P   1                   # n, l, Nzeta, Polarization, NzetaPol
   4.973      3.054   
   1.000      1.000   
%endblock PAO.Basis

prinput: ----------------------------------------------------------------------

coor:   Atomic-coordinates input format  =     Cartesian coordinates
coor:                                          (in Angstroms)

siesta: Atomic coordinates (Bohr) and species
siesta:      2.23554   1.32097   0.00000  1        1
siesta:      4.56367   2.66461   0.00000  1        2
siesta:     32.50328  21.48508   0.00000  1        3
siesta:     34.83116  17.45226   0.00000  1        4
siesta:     37.15930  18.79590   0.00000  1        5
siesta:     32.50291  13.41944   0.00000  1        6
siesta:     34.83104  14.76308   0.00000  1        7
siesta:     30.17465   9.38661   0.00000  1        8
siesta:     32.50278  10.73026   0.00000  1        9
siesta:     27.84639   5.35379   0.00000  1       10
siesta:     30.17453   6.69743   0.00000  1       11
siesta:     27.84714  21.48508   0.00000  1       12
siesta:     30.17527  22.82873   0.00000  1       13
siesta:      6.89168   1.32097   0.00000  1       14
siesta:      9.21981   2.66461   0.00000  1       15
siesta:     13.87595   2.66461   0.00000  1       16
siesta:     16.20396   1.32097   0.00000  1       17
siesta:     18.53210   2.66461   0.00000  1       18
siesta:     23.19013   2.66461   0.00000  1       19
siesta:     25.51813   1.32097   0.00000  1       20
siesta:     27.84627   2.66461   0.00000  1       21
siesta:      6.89193   6.69743   0.00000  1       22
siesta:      9.21994   5.35379   0.00000  1       23
siesta:     11.54807   6.69743   0.00000  1       24
siesta:     13.87608   5.35379   0.00000  1       25
siesta:     16.20421   6.69743   0.00000  1       26
siesta:     18.53411   5.35379   0.00000  1       27
siesta:     20.86224   6.69743   0.00000  1       28
siesta:     23.19025   5.35379   0.00000  1       29
siesta:     25.51838   6.69743   0.00000  1       30
siesta:      9.22019  10.73026   0.00000  1       31
siesta:     11.54820   9.38661   0.00000  1       32
siesta:     13.87633  10.73026   0.00000  1       33
siesta:     18.53247  10.73026   0.00000  1       34
siesta:     20.86237   9.38661   0.00000  1       35
siesta:     23.19050  10.73026   0.00000  1       36
siesta:      9.22031  13.41944   0.00000  1       37
siesta:     11.54845  14.76308   0.00000  1       38
siesta:     13.87645  13.41944   0.00000  1       39
siesta:     16.20459  14.76308   0.00000  1       40
siesta:     18.53448  13.41944   0.00000  1       41
siesta:     20.86262  14.76308   0.00000  1       42
siesta:     13.87670  18.79590   0.00000  1       43
siesta:     16.20471  17.45226   0.00000  1       44
siesta:     18.53284  18.79590   0.00000  1       45
siesta:     13.87683  21.48508   0.00000  1       46
siesta:     16.20496  22.82873   0.00000  1       47
siesta:     18.53486  21.48508   0.00000  1       48
siesta:     20.86299  22.82873   0.00000  1       49
siesta:     27.84664  10.73026   0.00000  1       50
siesta:     23.19063  13.41944   0.00000  1       51
siesta:     25.51876  14.76308   0.00000  1       52
siesta:     23.19088  18.79590   0.00000  1       53
siesta:     27.84677  13.41944   0.00000  1       54
siesta:     30.17490  14.76308   0.00000  1       55
siesta:     25.51888  17.45226   0.00000  1       56
siesta:     27.84702  18.79590   0.00000  1       57
siesta:     23.19100  21.48508   0.00000  1       58
siesta:     25.51913  22.82873   0.00000  1       59
siesta:     30.17503  17.45226   0.00000  1       60
siesta:     32.50316  18.79590   0.00000  1       61
siesta:     37.16131  21.48508   0.00000  1       62
siesta:     39.48945  22.82873   0.00000  1       63
siesta:     34.83141  22.82873   0.00000  2       64
siesta:     11.54782   1.32097   0.00000  2       65
siesta:     20.86199   1.32097   0.00000  2       66
siesta:      4.56380   5.35379   0.00000  2       67
siesta:      6.89205   9.38661   0.00000  2       68
siesta:     16.20434   9.38661   0.00000  2       69
siesta:     11.54857  17.45226   0.00000  2       70
siesta:     25.51851   9.38661   0.00000  2       71
siesta:     20.86274  17.45226   0.00000  2       72

siesta: System type = slab      

initatomlists: Number of atoms, orbitals, and projectors:     72   936  1152

siesta: ******************** Simulation parameters ****************************
siesta:
siesta: The following are some of the parameters of the simulation.
siesta: A complete list of the parameters used, including default values,
siesta: can be found in file out.fdf
siesta:
redata: Non-Collinear-spin run           =     F
redata: SpinPolarized (Up/Down) run      =     F
redata: Number of spin components        =     1
redata: Long output                      =     F
redata: Number of Atomic Species         =        2
redata: Charge density info will appear in .RHO file
redata: Write Mulliken Pop.              =     NO
redata: Mesh Cutoff                      =   200.0000  Ry
redata: Net charge of the system         =     0.0000 |e|
redata: Max. number of SCF Iter          =      500
redata: SCF convergence failure will abort job
redata: Performing Pulay mixing using    =    10 iterations
redata: Mix DM in first SCF step ?       =     F
redata: Write Pulay info on disk?        =     F
redata: Discard 1st Pulay DM after  kick =     F
redata: New DM Mixing Weight             =     0.0500
redata: New DM Occupancy tolerance       = 0.000000000001
redata: No kicks to SCF
redata: DM Mixing Weight for Kicks       =     0.5000
redata: DM Tolerance for SCF             =     0.000100
redata: Require Energy convergence for SCF =     F
redata: DM Energy tolerance for SCF      =     0.000100 eV
redata: Require Harris convergence for SCF =     F
redata: DM Harris energy tolerance for SCF =     0.000100 eV
redata: Using Saved Data (generic)   =     F
redata: Use continuation files for DM    =     T
redata: Neglect nonoverlap interactions  =     F
redata: Method of Calculation            =     Diagonalization
redata: Divide and Conquer               =     T
redata: Electronic Temperature           =     0.0019  Ry
redata: Fix the spin of the system       =     F
redata: Dynamics option                  =     Verlet MD run
redata: Initial MD time step             =        1
redata:   Final MD time step             =        1
redata: Length of MD time step           =     1.0000  fs
redata: Initial Temperature of MD run    =     0.0000  K
redata: Perform a MD quench              =     F
redata: ***********************************************************************
Total number of electrons:   297.000000
Total ionic charge:   297.000000

* ProcessorY, Blocksize:    2  24

k-point displ. along   1 input, could be:     0.00    0.50
k-point displ. along   2 input, could be:     0.00    0.50
 Kpoints in:          364 . Kpoints trimmed:          352

siesta: k-grid: Number of k-points =   352
siesta: k-grid: Cutoff (effective) =     5.000 Ang
siesta: k-grid: Supercell and displacements
siesta: k-grid:   26   0   0      0.000
siesta: k-grid:    0  26   0      0.000
siesta: k-grid:    0   0   1      0.000
Naive supercell factors:     2    2    2

superc: Internal auxiliary supercell:     2 x     2 x     2  =       8
superc: Number of atoms, orbitals, and projectors:    576   7488   9216

* Maximum dynamic memory allocated =     6 MB

siesta:                 ==============================
                            Begin MD step =      1
                        ==============================

superc: Internal auxiliary supercell:     2 x     2 x     2  =       8
superc: Number of atoms, orbitals, and projectors:    576   7488   9216

outcell: Unit cell vectors (Ang):
       14.785000    0.000000    0.000000
        7.393000   12.805052    0.000000
        0.000000    0.000000   10.000000

outcell: Cell vector modules (Ang)   :   14.785000   14.786000   10.000000
outcell: Cell angles (23,13,12) (deg):     90.0000     90.0000     60.0000
outcell: Cell volume (Ang**3)        :   1893.2269
New_DM. Step:     1
Initializing Density Matrix...

InitMesh: MESH =   120 x   120 x    90 =     1296000
InitMesh: Mesh cutoff (required, used) =   200.000   223.865 Ry

* Maximum dynamic memory allocated =   187 MB

stepf: Fermi-Dirac step function

siesta: Program's energy decomposition (eV):
siesta: Ebs     =     -4702.290147
siesta: Eions   =     19849.732669
siesta: Ena     =      4064.280676
siesta: Ekin    =      7133.479856
siesta: Enl     =       -33.662526
siesta: DEna    =        -0.000012
siesta: DUscf   =         0.000000
siesta: DUext   =         0.000000
siesta: Exc     =     -4161.691782
siesta: eta*DQ  =         0.000000
siesta: Emadel  =         0.000000
siesta: Emeta   =         0.000000
siesta: Emolmec =         0.000000
siesta: Ekinion =         0.000000
siesta: Eharris =    -12754.403943
siesta: Etot    =    -12847.326458
siesta: FreeEng =    -12847.326458

siesta: iscf   Eharris(eV)      E_KS(eV)   FreeEng(eV)   dDmax  Ef(eV)
siesta:    1   -12754.4039   -12847.3265   -12847.3265  1.9424 -4.8217
timer: Routine,Calls,Time,% = IterSCF        1    8084.113  99.87
elaps: Routine,Calls,Wall,% = IterSCF        1    1012.509  99.90
siesta:    2   -12777.2795   -12723.9426   -12723.9828  0.5274 -3.3918
siesta:    3   -12752.6623   -12745.1094   -12745.1279  0.4462 -3.3654
siesta:    4   -12747.5274   -12742.5515   -12742.5810  0.3746 -3.2584
siesta:    5   -12740.5267   -12740.3563   -12740.3866  0.1919 -3.1493
siesta:    6   -12739.3832   -12739.0484   -12739.0943  0.1308 -3.1518
siesta:    7   -12739.4210   -12737.4719   -12737.5192  0.0774 -3.1914
siesta:    8   -12739.1184   -12737.0641   -12737.1025  0.0518 -3.3139
siesta:    9   -12738.9961   -12736.9260   -12736.9636  0.0352 -3.4074
siesta:   10   -12738.8855   -12737.1420   -12737.1842  0.0154 -3.4226
siesta:   11   -12738.8454   -12737.3839   -12737.4284  0.0118 -3.4308
siesta:   12   -12738.8321   -12737.6988   -12737.7429  0.0080 -3.4362
siesta:   13   -12738.8307   -12737.9096   -12737.9540  0.0071 -3.4366
siesta:   14   -12738.8303   -12738.2738   -12738.3184  0.0047 -3.4352
siesta:   15   -12738.8301   -12738.5586   -12738.6031  0.0030 -3.4328
siesta:   16   -12738.8298   -12738.7834   -12738.8279  0.0021 -3.4311
siesta:   17   -12738.8298   -12738.8582   -12738.9027  0.0017 -3.4305
siesta:   18   -12738.8297   -12738.8608   -12738.9053  0.0006 -3.4289
siesta:   19   -12738.8297   -12738.8518   -12738.8964  0.0004 -3.4286
siesta:   20   -12738.8297   -12738.8366   -12738.8811  0.0002 -3.4284
siesta:   21   -12738.8297   -12738.8348   -12738.8793  0.0001 -3.4284
siesta:   22   -12738.8297   -12738.8302   -12738.8747  0.0001 -3.4284

siesta: E_KS(eV) =           -12738.8307

siesta: E_KS - E_eggbox =    -12738.8307

siesta: Atomic forces (eV/Ang):
----------------------------------------
   Tot    0.199399   -0.288170    0.000000
----------------------------------------
   Max    1.073351
   Res    0.329720    sqrt( Sum f_i^2 / 3N )
----------------------------------------
   Max    1.073351    constrained

Stress-tensor-Voigt (kbar):       -0.50       -0.10        0.14        0.11        0.00        0.00
(Free)E + p*V (eV/cell)   -12738.6968
Target enthalpy (eV/cell)   -12738.8752

siesta: Stress tensor (static) (eV/Ang**3):
        -0.000312    0.000068    0.000000
         0.000068   -0.000061    0.000000
         0.000000    0.000000    0.000090

siesta: Pressure (static):          0.15092749  kBar

siesta: Stress tensor (total) (eV/Ang**3):
        -0.000312    0.000068    0.000000
         0.000068   -0.000061    0.000000
         0.000000    0.000000    0.000090

siesta: Pressure (total):          0.15092749  kBar

siesta: Temp_ion =       0.000 K

* Maximum dynamic memory allocated =   203 MB

siesta: Program's energy decomposition (eV):
siesta: Ebs     =     -4185.504180
siesta: Eions   =     19849.732669
siesta: Ena     =      4064.280676
siesta: Ekin    =      8580.006941
siesta: Enl     =     -1058.262777
siesta: DEna    =      -247.492639
siesta: DUscf   =        22.672131
siesta: DUext   =         0.000000
siesta: Exc     =     -4250.302320
siesta: eta*DQ  =         0.000000
siesta: Emadel  =         0.000000
siesta: Emeta   =         0.000000
siesta: Emolmec =         0.000000
siesta: Ekinion =         0.000000
siesta: Eharris =    -12738.829667
siesta: Etot    =    -12738.830657
siesta: FreeEng =    -12738.875174

siesta: Final energy (eV):
siesta:  Band Struct. =   -4185.504180
siesta:       Kinetic =    8580.006941
siesta:       Hartree =   24803.524247
siesta:    Ext. field =       0.000000
siesta:   Exch.-corr. =   -4250.302320
siesta:  Ion-electron =  -57583.850134
siesta:       Ion-ion =   15711.790608
siesta:       Ekinion =       0.000000
siesta:         Total =  -12738.830657

siesta: Atomic forces (eV/Ang):
siesta:      1    0.330932    0.493263    0.000000
siesta:      2   -0.075960    0.551735    0.000000
siesta:      3   -0.344032    0.928487    0.000000
siesta:      4    0.241881   -1.073351    0.000000
siesta:      5    0.450289    0.506583    0.000000
siesta:      6    0.549726   -0.608235    0.000000
siesta:      7   -0.449179    0.870038    0.000000
siesta:      8    0.258246   -0.081429    0.000000
siesta:      9    0.264594    0.234233    0.000000
siesta:     10    0.638132    0.585392    0.000000
siesta:     11    0.398057   -1.026762    0.000000
siesta:     12    0.100187    0.477875    0.000000
siesta:     13    0.885516   -0.912411    0.000000
siesta:     14    0.467930   -0.000295    0.000000
siesta:     15    0.610213   -0.446048    0.000000
siesta:     16    0.052225   -0.644761    0.000000
siesta:     17   -0.064148    0.720042    0.000000
siesta:     18   -0.153977   -0.847452    0.000000
siesta:     19   -0.122928   -0.604398    0.000000
siesta:     20   -0.224040    0.175106    0.000000
siesta:     21   -0.656638   -0.127153    0.000000
siesta:     22   -0.575280   -0.118832    0.000000
siesta:     23   -0.200244    0.082859    0.000000
siesta:     24   -0.106230   -0.020161    0.000000
siesta:     25   -0.199654    0.417312    0.000000
siesta:     26   -0.111499   -0.112606    0.000000
siesta:     27    0.310129    0.202240    0.000000
siesta:     28   -0.085450    0.162187    0.000000
siesta:     29   -0.234488   -0.112622    0.000000
siesta:     30    0.148117    0.397653    0.000000
siesta:     31   -0.296558    0.065108    0.000000
siesta:     32    0.250977   -0.192880    0.000000
siesta:     33   -0.039744   -0.140475    0.000000
siesta:     34   -0.047833    0.025154    0.000000
siesta:     35   -0.212241   -0.480552    0.000000
siesta:     36    0.506205    0.104420    0.000000
siesta:     37    0.238413   -0.234015    0.000000
siesta:     38   -0.358369    0.314240    0.000000
siesta:     39    0.464454    0.111879    0.000000
siesta:     40   -0.021110   -0.068713    0.000000
siesta:     41   -0.438600   -0.049724    0.000000
siesta:     42    0.330340    0.414345    0.000000
siesta:     43   -0.279030   -0.087143    0.000000
siesta:     44   -0.040372   -0.279113    0.000000
siesta:     45    0.536544   -0.113399    0.000000
siesta:     46   -0.644259   -0.440477    0.000000
siesta:     47    0.194945   -0.172258    0.000000
siesta:     48    0.504089   -0.338108    0.000000
siesta:     49   -0.620708    0.333468    0.000000
siesta:     50   -0.420933   -0.769646    0.000000
siesta:     51   -0.202305   -0.112538    0.000000
siesta:     52    0.574468    0.187975    0.000000
siesta:     53   -0.577176   -0.109249    0.000000
siesta:     54   -0.607458    0.104891    0.000000
siesta:     55   -0.030754   -0.134882    0.000000
siesta:     56   -0.354815   -0.439269    0.000000
siesta:     57   -0.261457    0.106499    0.000000
siesta:     58    0.139768   -0.085627    0.000000
siesta:     59    0.086832    0.366591    0.000000
siesta:     60   -0.145141    0.046561    0.000000
siesta:     61    0.556219    0.648591    0.000000
siesta:     62   -0.134483    0.114430    0.000000
siesta:     63   -0.320951   -0.037619    0.000000
siesta:     64    0.171233   -0.837323    0.000000
siesta:     65   -0.184198    0.281241    0.000000
siesta:     66   -0.053194    0.850589    0.000000
siesta:     67    0.115727    0.942566    0.000000
siesta:     68   -0.256864   -0.530763    0.000000
siesta:     69    0.054194    0.060338    0.000000
siesta:     70    0.026172    0.069472    0.000000
siesta:     71   -0.042907    0.191203    0.000000
siesta:     72   -0.062148   -0.042448    0.000000
siesta: ----------------------------------------
siesta:    Tot    0.199399   -0.288170    0.000000

siesta: Stress tensor (static) (eV/Ang**3):
siesta:    -0.000312    0.000068    0.000000
siesta:     0.000068   -0.000061    0.000000
siesta:     0.000000    0.000000    0.000090

siesta: Cell volume =       1893.226895 Ang**3

siesta: Pressure (static):
siesta:                Solid            Molecule  Units
siesta:           0.00000103          0.00000717  Ry/Bohr**3
siesta:           0.00009420          0.00065805  eV/Ang**3
siesta:           0.15092749          1.05432893  kBar
(Free)E+ p_basis*V_orbitals  =      -12709.424228
(Free)Eharris+ p_basis*V_orbitals  =      -12709.423737

siesta: Electric dipole (a.u.)  =    0.000000    0.000000    0.000000
siesta: Electric dipole (Debye) =    0.000000    0.000000    0.000000

* Maximum dynamic memory allocated : Node    0 =   203 MB
* Maximum dynamic memory allocated : Node    1 =    74 MB
* Maximum dynamic memory allocated : Node    2 =    75 MB
* Maximum dynamic memory allocated : Node    3 =   192 MB
* Maximum dynamic memory allocated : Node    4 =   203 MB
* Maximum dynamic memory allocated : Node    5 =    73 MB
* Maximum dynamic memory allocated : Node    6 =    75 MB
* Maximum dynamic memory allocated : Node    7 =   187 MB

* Maximum memory occured during matrixMtoO                    

timer: CPU execution times:
timer:  Routine       Calls   Time/call    Tot.time        %
timer:  siesta            1  175779.276  175779.276   100.00
timer:  Setup             1       3.095       3.095     0.00
timer:  bands             1       0.011       0.011     0.00
timer:  writewave         1       0.018       0.018     0.00
timer:  KSV_init          1       0.002       0.002     0.00
timer:  IterMD            1  175767.957  175767.957    99.99
timer:  hsparse           1       0.269       0.269     0.00
timer:  overlap           1       6.350       6.350     0.00
timer:  IterSCF          22    7981.681  175596.973    99.90
timer:  kinefsm           2       3.263       6.526     0.00
timer:  nlefsm            2      18.642      37.285     0.02
timer:  DHSCF            23      91.601    2106.827     1.20
timer:  DHSCF1            1       0.811       0.811     0.00
timer:  DHSCF2            1      34.690      34.690     0.02
timer:  REORD           186       0.014       2.600     0.00
timer:  POISON           24       3.798      91.159     0.05
timer:  DHSCF3           23      88.614    2038.124     1.16
timer:  rhoofd           23      16.399     377.182     0.21
timer:  cellXC           23       3.512      80.787     0.05
timer:  vmat             23      44.669    1027.389     0.58
timer:  MolMec            2       0.000       0.000     0.00
timer:  diagon           22    7888.633  173549.930    98.73
timer:  c-eigval       7744       7.233   56009.026    31.86
timer:  c-buildHS      7744       0.213    1648.740     0.94
timer:  cdiag         15488       7.405  114682.061    65.24
timer:  cdiag1        15488       0.469    7262.374     4.13
timer:  cdiag2        15488       1.981   30675.117    17.45
timer:  cdiag3        15488       4.164   64493.704    36.69
timer:  cdiag4        15488       0.245    3793.492     2.16
timer:  c-eigvec       7744       7.881   61028.864    34.72
timer:  c-buildD       7744       7.286   56419.000    32.10
timer:  DHSCF4            1      31.121      31.121     0.02
timer:  dfscf             1      29.275      29.275     0.02
timer:  overfsm           1       0.379       0.379     0.00
timer:  optical           1       7.191       7.191     0.00
  

elaps: ELAPSED times:
elaps:  Routine       Calls   Time/call    Tot.time        %
elaps:  siesta            1   22007.312   22007.312   100.00
elaps:  Setup             1       0.388       0.388     0.00
elaps:  bands             1       0.001       0.001     0.00
elaps:  writewave         1       0.002       0.002     0.00
elaps:  KSV_init          1       0.000       0.000     0.00
elaps:  IterMD            1   22005.895   22005.895    99.99
elaps:  hsparse           1       0.034       0.034     0.00
elaps:  overlap           1       0.523       0.523     0.00
elaps:  IterSCF          22     999.311   21984.840    99.90
elaps:  kinefsm           2       0.274       0.549     0.00
elaps:  nlefsm            2       2.461       4.921     0.02
elaps:  DHSCF            23      11.598     266.750     1.21
elaps:  DHSCF1            1       0.104       0.104     0.00
elaps:  DHSCF2            1       4.335       4.335     0.02
elaps:  REORD           186       0.002       0.347     0.00
elaps:  POISON           24       0.476      11.428     0.05
elaps:  DHSCF3           23      11.087     254.996     1.16
elaps:  rhoofd           23       3.523      81.040     0.37
elaps:  cellXC           23       0.438      10.076     0.05
elaps:  vmat             23       5.588     128.527     0.58
elaps:  MolMec            2       0.000       0.000     0.00
elaps:  diagon           22     987.687   21729.104    98.74
elaps:  c-eigval       7744       0.905    7008.905    31.85
elaps:  c-buildHS      7744       0.028     218.235     0.99
elaps:  cdiag         15488       0.911   14101.914    64.08
elaps:  cdiag1        15488       0.057     879.951     4.00
elaps:  cdiag2        15488       0.248    3838.673    17.44
elaps:  cdiag3        15488       0.522    8081.974    36.72
elaps:  cdiag4        15488       0.034     526.555     2.39
elaps:  c-eigvec       7744       0.957    7412.716    33.68
elaps:  c-buildD       7744       0.942    7294.287    33.14
elaps:  DHSCF4            1       7.025       7.025     0.03
elaps:  dfscf             1       6.651       6.651     0.03
elaps:  overfsm           1       0.048       0.048     0.00
elaps:  optical           1       0.000       0.000     0.00
  
>> End of run:   1-DEC-2015   5:01:43
