Siesta Version:                                        siesta-3.2-pl-3
Architecture  : x86_64-unknown-linux-gnu--unknown
Compiler flags: mpiifort -g -O2 -fPIC -xSSE4.1 -fp-model source -shared-intel 
PARALLEL version

* Running on    8 nodes in parallel
>> Start of run:   9-DEC-2015  16:54:27

                           ***********************       
                           *  WELCOME TO SIESTA  *       
                           ***********************       

reinit: Reading from standard input
************************** Dump of input data file ****************************
#(1) General system descriptors
SystemName            GRP_doping    # Descriptive name of the system
SystemLabel           GRP_doping    # Short name for naming files
%include STRUCT.fdf
%include KPT.fdf
%include BASIS.fdf
#%include TS.fdf # for transiesta calculation
#(4) DFT, Grid, SCF
XC.functional         GGA           # LDA or GGA (default = LDA)
XC.authors            PBE           # CA (Ceperley-Aldr) = PZ
                                    #    (Perdew-Zunger) - LDA - Default
                                    # PW92 (Perdew-Wang-92) - LDA
                                    # PBE (Perdew-Burke-Ernzerhof) - GGA
MeshCutoff            200.000000    Ry      # Default: 50.0 Ry ~ 0.444 Bohr
                                    #         100.0 Ry ~ 0.314 Bohr
MaxSCFIterations      500           # Default: 50
DM.MixingWeight       0.05          # Default: 0.25
DM.NumberPulay        10            # Default: 0
DM.PulayOnFile        F             # SystemLabel.P1, SystemLabel.P2
DM.Tolerance          1.d-4         # Default: 1.d-4
DM.UseSaveDM          .true.        # because of the bug
SCFMustConverge       .true.
NeglNonOverlapInt     F             # Default: F
#(5) Eigenvalue problem: order-N or diagonalization
SolutionMethod        Diagon        # or Transiesta
ElectronicTemperature 300.0 K       # Default: 300.0 K
#(6) Molecular dynamics and relaxations
#MD.TypeOfRun          CG            # Type of dynamics:
#MD.VariableCell       F
#MD.NumCGsteps         0           # 0 for single-point / 100 for gopt
#MD.MaxCGDispl         0.2 Bohr      # Default: 0.2 Bohr
#MD.MaxForceTol        0.02 eV/Ang   # Default: 0.04 eV/Ang
#MD.MaxStressTol       1.0 GPa       # Default: 1.0 GPa
# Geometry Constraints
#%block GeometryConstraints
#	position from 1 to 44
#%endblock GeometryConstraints
BandLinesScale   pi/a
%block BandLines
 1   0.00000000  0.00000000  0.00000000
50   0.00000000  0.07809418  0.00000000
50   0.04509075  0.07809242  0.00000000
20   0.00000000  0.00000000  0.00000000
%endblock BandLines
************************** End of input data file *****************************

reinit: -----------------------------------------------------------------------
reinit: System Name: GRP_doping
reinit: -----------------------------------------------------------------------
reinit: System Label: GRP_doping                                                  
reinit: -----------------------------------------------------------------------

initatom: Reading input for the pseudopotentials and atomic orbitals ----------
 Species number:            1  Label: C Atomic number:           6
 Species number:            2  Label: N Atomic number:           7
Ground state valence configuration:   2s02  2p02
Reading pseudopotential information in formatted form from C.psf

Valence configuration for pseudopotential generation:
2s( 2.00) rc: 1.54
2p( 2.00) rc: 1.54
3d( 0.00) rc: 1.54
4f( 0.00) rc: 1.54
Ground state valence configuration:   2s02  2p03
Reading pseudopotential information in formatted form from N.psf

Valence configuration for pseudopotential generation:
2s( 2.00) rc: 1.48
2p( 3.00) rc: 1.48
3d( 0.00) rc: 1.48
4f( 0.00) rc: 1.48
For C, standard SIESTA heuristics set lmxkb to 3
 (one more than the basis l, including polarization orbitals).
Use PS.lmax or PS.KBprojectors blocks to override.
For N, standard SIESTA heuristics set lmxkb to 3
 (one more than the basis l, including polarization orbitals).
Use PS.lmax or PS.KBprojectors blocks to override.

<basis_specs>
===============================================================================
C                    Z=   6    Mass=  12.010        Charge= 0.17977+309
Lmxo=1 Lmxkb= 3    BasisType=split      Semic=F
L=0  Nsemic=0  Cnfigmx=2
          n=1  nzeta=2  polorb=0
            splnorm:   0.15000    
               vcte:    0.0000    
               rinn:    0.0000    
                rcs:    0.0000      0.0000    
            lambdas:    1.0000      1.0000    
L=1  Nsemic=0  Cnfigmx=2
          n=1  nzeta=2  polorb=1
            splnorm:   0.15000    
               vcte:    0.0000    
               rinn:    0.0000    
                rcs:    0.0000      0.0000    
            lambdas:    1.0000      1.0000    
-------------------------------------------------------------------------------
L=0  Nkbl=1  erefs: 0.17977+309
L=1  Nkbl=1  erefs: 0.17977+309
L=2  Nkbl=1  erefs: 0.17977+309
L=3  Nkbl=1  erefs: 0.17977+309
===============================================================================
</basis_specs>

atom: Called for C                     (Z =   6)

read_vps: Pseudopotential generation method:
read_vps: ATM3      Troullier-Martins                       
Total valence charge:    4.00000

read_vps: Pseudopotential includes a core correction:
read_vps: Pseudo-core for xc-correction

xc_check: Exchange-correlation functional:
xc_check: GGA Perdew, Burke & Ernzerhof 1996
V l=0 = -2*Zval/r beyond r=  1.5227
V l=1 = -2*Zval/r beyond r=  1.5227
V l=2 = -2*Zval/r beyond r=  1.5227
V l=3 = -2*Zval/r beyond r=  1.5038
All V_l potentials equal beyond r=  1.5227
This should be close to max(r_c) in ps generation
All pots = -2*Zval/r beyond r=  1.5227

VLOCAL1: 99.0% of the norm of Vloc inside     18.722 Ry
VLOCAL1: 99.9% of the norm of Vloc inside     42.668 Ry
atom: Maximum radius for 4*pi*r*r*local-pseudopot. charge    1.83678
atom: Maximum radius for r*vlocal+2*Zval:    1.58088
GHOST: No ghost state for L =  0
GHOST: No ghost state for L =  1
GHOST: No ghost state for L =  2
GHOST: No ghost state for L =  3

KBgen: Kleinman-Bylander projectors: 
   l= 0   rc=  1.704034   el= -1.009801   Ekb=  5.335044   kbcos=  0.316824
   l= 1   rc=  1.704034   el= -0.388707   Ekb= -3.785862   kbcos= -0.366464
   l= 2   rc=  1.791422   el=  0.001971   Ekb= -0.970471   kbcos= -0.009212
   l= 3   rc=  1.859892   el=  0.003065   Ekb= -0.399525   kbcos= -0.001223

KBgen: Total number of  Kleinman-Bylander projectors:   16
atom: -------------------------------------------------------------------------

atom: SANKEY-TYPE ORBITALS:
atom: Selected multiple-zeta basis: split     

SPLIT: Orbitals with angular momentum L= 0

SPLIT: Basis orbitals for state 2s

SPLIT: PAO cut-off radius determined from an
SPLIT: energy shift=  0.007350 Ry

   izeta = 1
                 lambda =    1.000000
                     rc =    4.632753
                 energy =   -1.002270
                kinetic =    0.855760
    potential(screened) =   -1.858031
       potential(ionic) =   -5.417575

   izeta = 2
                 rmatch =    3.431921
              splitnorm =    0.150000
                 energy =   -0.867111
                kinetic =    1.300804
    potential(screened) =   -2.167915
       potential(ionic) =   -5.962684

SPLIT: Orbitals with angular momentum L= 1

SPLIT: Basis orbitals for state 2p

SPLIT: PAO cut-off radius determined from an
SPLIT: energy shift=  0.007350 Ry

   izeta = 1
                 lambda =    1.000000
                     rc =    5.658549
                 energy =   -0.381140
                kinetic =    2.399701
    potential(screened) =   -2.780841
       potential(ionic) =   -6.206085

   izeta = 2
                 rmatch =    3.653288
              splitnorm =    0.150000
                 energy =   -0.249149
                kinetic =    3.542762
    potential(screened) =   -3.791911
       potential(ionic) =   -7.581078

POLgen: Perturbative polarization orbital with L=  2

POLgen: Polarization orbital for state 2p

   izeta = 1
                     rc =    5.658549
                 energy =    1.109913
                kinetic =    2.304789
    potential(screened) =   -1.194876
       potential(ionic) =   -4.013592
atom: Total number of Sankey-type orbitals: 13

atm_pop: Valence configuration (for local Pseudopot. screening):
 2s( 2.00)                                                            
 2p( 2.00)                                                            
Vna: chval, zval:    4.00000   4.00000

Vna:  Cut-off radius for the neutral-atom potential:   5.658549
comcore: Pseudo-core radius Rcore=  1.791422

atom: _________________________________________________________________________

<basis_specs>
===============================================================================
N                    Z=   7    Mass=  14.010        Charge= 0.17977+309
Lmxo=1 Lmxkb= 3    BasisType=split      Semic=F
L=0  Nsemic=0  Cnfigmx=2
          n=1  nzeta=2  polorb=0
            splnorm:   0.15000    
               vcte:    0.0000    
               rinn:    0.0000    
                rcs:    0.0000      0.0000    
            lambdas:    1.0000      1.0000    
L=1  Nsemic=0  Cnfigmx=2
          n=1  nzeta=2  polorb=1
            splnorm:   0.15000    
               vcte:    0.0000    
               rinn:    0.0000    
                rcs:    0.0000      0.0000    
            lambdas:    1.0000      1.0000    
-------------------------------------------------------------------------------
L=0  Nkbl=1  erefs: 0.17977+309
L=1  Nkbl=1  erefs: 0.17977+309
L=2  Nkbl=1  erefs: 0.17977+309
L=3  Nkbl=1  erefs: 0.17977+309
===============================================================================
</basis_specs>

atom: Called for N                     (Z =   7)

read_vps: Pseudopotential generation method:
read_vps: ATM3      Troullier-Martins                       
Total valence charge:    5.00000

read_vps: Pseudopotential includes a core correction:
read_vps: Pseudo-core for xc-correction

xc_check: Exchange-correlation functional:
xc_check: GGA Perdew, Burke & Ernzerhof 1996
V l=0 = -2*Zval/r beyond r=  1.4606
V l=1 = -2*Zval/r beyond r=  1.4606
V l=2 = -2*Zval/r beyond r=  1.4606
V l=3 = -2*Zval/r beyond r=  1.4606
All V_l potentials equal beyond r=  1.4606
This should be close to max(r_c) in ps generation
All pots = -2*Zval/r beyond r=  1.4606

VLOCAL1: 99.0% of the norm of Vloc inside     20.347 Ry
VLOCAL1: 99.9% of the norm of Vloc inside     46.372 Ry
atom: Maximum radius for 4*pi*r*r*local-pseudopot. charge    1.76189
atom: Maximum radius for r*vlocal+2*Zval:    1.53550
GHOST: No ghost state for L =  0
GHOST: No ghost state for L =  1
GHOST: No ghost state for L =  2
GHOST: No ghost state for L =  3

KBgen: Kleinman-Bylander projectors: 
   l= 0   rc=  1.634559   el= -1.363963   Ekb=  5.296955   kbcos=  0.335621
   l= 1   rc=  1.614250   el= -0.521451   Ekb= -5.259161   kbcos= -0.433408
   l= 2   rc=  1.718383   el=  0.001991   Ekb= -1.271464   kbcos= -0.007566
   l= 3   rc=  1.761893   el=  0.003093   Ekb= -0.494769   kbcos= -0.001015

KBgen: Total number of  Kleinman-Bylander projectors:   16
atom: -------------------------------------------------------------------------

atom: SANKEY-TYPE ORBITALS:
atom: Selected multiple-zeta basis: split     

SPLIT: Orbitals with angular momentum L= 0

SPLIT: Basis orbitals for state 2s

SPLIT: PAO cut-off radius determined from an
SPLIT: energy shift=  0.007350 Ry

   izeta = 1
                 lambda =    1.000000
                     rc =    4.071465
                 energy =   -1.356470
                kinetic =    1.176977
    potential(screened) =   -2.533447
       potential(ionic) =   -8.057990

   izeta = 2
                 rmatch =    2.905100
              splitnorm =    0.150000
                 energy =   -1.158343
                kinetic =    1.813009
    potential(screened) =   -2.971352
       potential(ionic) =   -8.901931

SPLIT: Orbitals with angular momentum L= 1

SPLIT: Basis orbitals for state 2p

SPLIT: PAO cut-off radius determined from an
SPLIT: energy shift=  0.007350 Ry

   izeta = 1
                 lambda =    1.000000
                     rc =    4.972977
                 energy =   -0.513884
                kinetic =    3.441732
    potential(screened) =   -3.955616
       potential(ionic) =   -9.287901

   izeta = 2
                 rmatch =    3.054066
              splitnorm =    0.150000
                 energy =   -0.318226
                kinetic =    5.125348
    potential(screened) =   -5.443573
       potential(ionic) =  -11.380999

POLgen: Perturbative polarization orbital with L=  2

POLgen: Polarization orbital for state 2p

   izeta = 1
                     rc =    4.972977
                 energy =    1.607437
                kinetic =    3.268125
    potential(screened) =   -1.660688
       potential(ionic) =   -5.973652
atom: Total number of Sankey-type orbitals: 13

atm_pop: Valence configuration (for local Pseudopot. screening):
 2s( 2.00)                                                            
 2p( 3.00)                                                            
Vna: chval, zval:    5.00000   5.00000

Vna:  Cut-off radius for the neutral-atom potential:   4.972977
comcore: Pseudo-core radius Rcore=  1.554824

atom: _________________________________________________________________________

prinput: Basis input ----------------------------------------------------------

PAO.BasisType split     

%block ChemicalSpeciesLabel
    1    6 C                       # Species index, atomic number, species label
    2    7 N                       # Species index, atomic number, species label
%endblock ChemicalSpeciesLabel

%block PAO.Basis                 # Define Basis set
C                     2                    # Species label, number of l-shells
 n=2   0   2                         # n, l, Nzeta 
   4.633      3.432   
   1.000      1.000   
 n=2   1   2 P   1                   # n, l, Nzeta, Polarization, NzetaPol
   5.659      3.653   
   1.000      1.000   
N                     2                    # Species label, number of l-shells
 n=2   0   2                         # n, l, Nzeta 
   4.071      2.905   
   1.000      1.000   
 n=2   1   2 P   1                   # n, l, Nzeta, Polarization, NzetaPol
   4.973      3.054   
   1.000      1.000   
%endblock PAO.Basis

prinput: ----------------------------------------------------------------------

coor:   Atomic-coordinates input format  =     Cartesian coordinates
coor:                                          (in Angstroms)

siesta: Atomic coordinates (Bohr) and species
siesta:      2.23554   1.32097   0.00000  1        1
siesta:      4.56367   2.66461   0.00000  1        2
siesta:     32.50328  21.48508   0.00000  1        3
siesta:     34.83141  22.82873   0.00000  1        4
siesta:     34.83116  17.45226   0.00000  1        5
siesta:     37.15930  18.79590   0.00000  1        6
siesta:     32.50291  13.41944   0.00000  1        7
siesta:     34.83104  14.76308   0.00000  1        8
siesta:     30.17465   9.38661   0.00000  1        9
siesta:     32.50278  10.73026   0.00000  1       10
siesta:     27.84639   5.35379   0.00000  1       11
siesta:     30.17453   6.69743   0.00000  1       12
siesta:     27.84714  21.48508   0.00000  1       13
siesta:     30.17527  22.82873   0.00000  1       14
siesta:      6.89168   1.32097   0.00000  1       15
siesta:      9.21981   2.66461   0.00000  1       16
siesta:     11.54782   1.32097   0.00000  1       17
siesta:     13.87595   2.66461   0.00000  1       18
siesta:     16.20396   1.32097   0.00000  1       19
siesta:     18.53210   2.66461   0.00000  1       20
siesta:     20.86199   1.32097   0.00000  1       21
siesta:     23.19013   2.66461   0.00000  1       22
siesta:     25.51813   1.32097   0.00000  1       23
siesta:     27.84627   2.66461   0.00000  1       24
siesta:      4.56380   5.35379   0.00000  1       25
siesta:      6.89193   6.69743   0.00000  1       26
siesta:      9.21994   5.35379   0.00000  1       27
siesta:     11.54807   6.69743   0.00000  1       28
siesta:     13.87608   5.35379   0.00000  1       29
siesta:     16.20421   6.69743   0.00000  1       30
siesta:     18.53411   5.35379   0.00000  1       31
siesta:     20.86224   6.69743   0.00000  1       32
siesta:     23.19025   5.35379   0.00000  1       33
siesta:     25.51838   6.69743   0.00000  1       34
siesta:      6.89205   9.38661   0.00000  1       35
siesta:      9.22019  10.73026   0.00000  1       36
siesta:     11.54820   9.38661   0.00000  1       37
siesta:     13.87633  10.73026   0.00000  1       38
siesta:     16.20434   9.38661   0.00000  1       39
siesta:     20.86237   9.38661   0.00000  1       40
siesta:      9.22031  13.41944   0.00000  1       41
siesta:     11.54845  14.76308   0.00000  1       42
siesta:     13.87645  13.41944   0.00000  1       43
siesta:     16.20459  14.76308   0.00000  1       44
siesta:     18.53448  13.41944   0.00000  1       45
siesta:     20.86262  14.76308   0.00000  1       46
siesta:     11.54857  17.45226   0.00000  1       47
siesta:     13.87670  18.79590   0.00000  1       48
siesta:     16.20471  17.45226   0.00000  1       49
siesta:     18.53284  18.79590   0.00000  1       50
siesta:     13.87683  21.48508   0.00000  1       51
siesta:     16.20496  22.82873   0.00000  1       52
siesta:     18.53486  21.48508   0.00000  1       53
siesta:     20.86299  22.82873   0.00000  1       54
siesta:     25.51851   9.38661   0.00000  1       55
siesta:     27.84664  10.73026   0.00000  1       56
siesta:     23.19063  13.41944   0.00000  1       57
siesta:     25.51876  14.76308   0.00000  1       58
siesta:     20.86274  17.45226   0.00000  1       59
siesta:     23.19088  18.79590   0.00000  1       60
siesta:     27.84677  13.41944   0.00000  1       61
siesta:     30.17490  14.76308   0.00000  1       62
siesta:     25.51888  17.45226   0.00000  1       63
siesta:     27.84702  18.79590   0.00000  1       64
siesta:     23.19100  21.48508   0.00000  1       65
siesta:     25.51913  22.82873   0.00000  1       66
siesta:     30.17503  17.45226   0.00000  1       67
siesta:     32.50316  18.79590   0.00000  1       68
siesta:     37.16131  21.48508   0.00000  1       69
siesta:     39.48945  22.82873   0.00000  1       70
siesta:     18.53247  10.73026   0.00000  2       71
siesta:     23.19050  10.73026   0.00000  2       72

siesta: System type = slab      

initatomlists: Number of atoms, orbitals, and projectors:     72   936  1152

siesta: ******************** Simulation parameters ****************************
siesta:
siesta: The following are some of the parameters of the simulation.
siesta: A complete list of the parameters used, including default values,
siesta: can be found in file out.fdf
siesta:
redata: Non-Collinear-spin run           =     F
redata: SpinPolarized (Up/Down) run      =     F
redata: Number of spin components        =     1
redata: Long output                      =     F
redata: Number of Atomic Species         =        2
redata: Charge density info will appear in .RHO file
redata: Write Mulliken Pop.              =     NO
redata: Mesh Cutoff                      =   200.0000  Ry
redata: Net charge of the system         =     0.0000 |e|
redata: Max. number of SCF Iter          =      500
redata: SCF convergence failure will abort job
redata: Performing Pulay mixing using    =    10 iterations
redata: Mix DM in first SCF step ?       =     F
redata: Write Pulay info on disk?        =     F
redata: Discard 1st Pulay DM after  kick =     F
redata: New DM Mixing Weight             =     0.0500
redata: New DM Occupancy tolerance       = 0.000000000001
redata: No kicks to SCF
redata: DM Mixing Weight for Kicks       =     0.5000
redata: DM Tolerance for SCF             =     0.000100
redata: Require Energy convergence for SCF =     F
redata: DM Energy tolerance for SCF      =     0.000100 eV
redata: Require Harris convergence for SCF =     F
redata: DM Harris energy tolerance for SCF =     0.000100 eV
redata: Using Saved Data (generic)   =     F
redata: Use continuation files for DM    =     T
redata: Neglect nonoverlap interactions  =     F
redata: Method of Calculation            =     Diagonalization
redata: Divide and Conquer               =     T
redata: Electronic Temperature           =     0.0019  Ry
redata: Fix the spin of the system       =     F
redata: Dynamics option                  =     Verlet MD run
redata: Initial MD time step             =        1
redata:   Final MD time step             =        1
redata: Length of MD time step           =     1.0000  fs
redata: Initial Temperature of MD run    =     0.0000  K
redata: Perform a MD quench              =     F
redata: ***********************************************************************
Total number of electrons:   290.000000
Total ionic charge:   290.000000

* ProcessorY, Blocksize:    2  24

k-point displ. along   1 input, could be:     0.00    0.50
k-point displ. along   2 input, could be:     0.00    0.50
 Kpoints in:          364 . Kpoints trimmed:          352

siesta: k-grid: Number of k-points =   352
siesta: k-grid: Cutoff (effective) =     5.000 Ang
siesta: k-grid: Supercell and displacements
siesta: k-grid:   26   0   0      0.000
siesta: k-grid:    0  26   0      0.000
siesta: k-grid:    0   0   1      0.000
Naive supercell factors:     2    2    2

superc: Internal auxiliary supercell:     2 x     2 x     2  =       8
superc: Number of atoms, orbitals, and projectors:    576   7488   9216

* Maximum dynamic memory allocated =     6 MB

siesta:                 ==============================
                            Begin MD step =      1
                        ==============================

superc: Internal auxiliary supercell:     2 x     2 x     2  =       8
superc: Number of atoms, orbitals, and projectors:    576   7488   9216

outcell: Unit cell vectors (Ang):
       14.785000    0.000000    0.000000
        7.393000   12.805052    0.000000
        0.000000    0.000000   10.000000

outcell: Cell vector modules (Ang)   :   14.785000   14.786000   10.000000
outcell: Cell angles (23,13,12) (deg):     90.0000     90.0000     60.0000
outcell: Cell volume (Ang**3)        :   1893.2269
New_DM. Step:     1
Initializing Density Matrix...

iodm: Reading Density Matrix from files

InitMesh: MESH =   120 x   120 x    90 =     1296000
InitMesh: Mesh cutoff (required, used) =   200.000   223.865 Ry

* Maximum dynamic memory allocated =   193 MB

stepf: Fermi-Dirac step function

siesta: Program's energy decomposition (eV):
siesta: Ebs     =     -3990.955354
siesta: Eions   =     18724.504759
siesta: Ena     =      3995.644261
siesta: Ekin    =      7998.936456
siesta: Enl     =      -852.210000
siesta: DEna    =      -277.779241
siesta: DUscf   =        24.532430
siesta: DUext   =         0.000000
siesta: Exc     =     -4086.021291
siesta: eta*DQ  =         0.000000
siesta: Emadel  =         0.000000
siesta: Emeta   =         0.000000
siesta: Emolmec =         0.000000
siesta: Ekinion =         0.000000
siesta: Eharris =    -11921.401493
siesta: Etot    =    -11921.402145
siesta: FreeEng =    -11921.402145

siesta: iscf   Eharris(eV)      E_KS(eV)   FreeEng(eV)   dDmax  Ef(eV)
siesta:    1   -11921.4015   -11921.4021   -11921.4021  0.0000 -3.9097
timer: Routine,Calls,Time,% = IterSCF        1    6644.659  99.82
elaps: Routine,Calls,Wall,% = IterSCF        1     831.578  99.82

siesta: E_KS(eV) =           -11921.4015

siesta: E_KS - E_eggbox =    -11921.4015

siesta: Atomic forces (eV/Ang):
----------------------------------------
   Tot    0.237268   -0.243039    0.000000
----------------------------------------
   Max    0.940789
   Res    0.204857    sqrt( Sum f_i^2 / 3N )
----------------------------------------
   Max    0.940789    constrained

Stress-tensor-Voigt (kbar):      -28.12      -27.87        0.04       -0.34        0.00        0.00
(Free)E + p*V (eV/cell)   -11899.3870
Target enthalpy (eV/cell)   -11921.4238

siesta: Stress tensor (static) (eV/Ang**3):
        -0.017550   -0.000213    0.000000
        -0.000213   -0.017394    0.000000
         0.000000    0.000000    0.000024

siesta: Pressure (static):         18.64926338  kBar

siesta: Stress tensor (total) (eV/Ang**3):
        -0.017550   -0.000213    0.000000
        -0.000213   -0.017394    0.000000
         0.000000    0.000000    0.000024

siesta: Pressure (total):         18.64926338  kBar

siesta: Temp_ion =       0.000 K

* Maximum dynamic memory allocated =   207 MB
Computing bands...

siesta: Program's energy decomposition (eV):
siesta: Ebs     =     -3990.955354
siesta: Eions   =     18724.504759
siesta: Ena     =      3995.644261
siesta: Ekin    =      7998.939069
siesta: Enl     =      -852.210727
siesta: DEna    =      -277.780353
siesta: DUscf   =        24.532666
siesta: DUext   =         0.000000
siesta: Exc     =     -4086.021649
siesta: eta*DQ  =         0.000000
siesta: Emadel  =         0.000000
siesta: Emeta   =         0.000000
siesta: Emolmec =         0.000000
siesta: Ekinion =         0.000000
siesta: Eharris =    -11921.401493
siesta: Etot    =    -11921.401493
siesta: FreeEng =    -11921.423793

siesta: Final energy (eV):
siesta:  Band Struct. =   -3990.955354
siesta:       Kinetic =    7998.939069
siesta:       Hartree =   23486.523549
siesta:    Ext. field =       0.000000
siesta:   Exch.-corr. =   -4086.021649
siesta:  Ion-electron =  -54365.044398
siesta:       Ion-ion =   15044.201936
siesta:       Ekinion =       0.000000
siesta:         Total =  -11921.401493

siesta: Atomic forces (eV/Ang):
siesta:      1   -0.008901    0.016957    0.000000
siesta:      2   -0.004423    0.026357    0.000000
siesta:      3   -0.042435    0.010747    0.000000
siesta:      4    0.035456    0.104205    0.000000
siesta:      5    0.007369    0.046785    0.000000
siesta:      6    0.062666   -0.050360    0.000000
siesta:      7    0.127702   -0.122764    0.000000
siesta:      8    0.013577   -0.048061    0.000000
siesta:      9   -0.091794   -0.267645    0.000000
siesta:     10    0.020151    0.140923    0.000000
siesta:     11    0.223702    0.136401    0.000000
siesta:     12   -0.048380    0.008974    0.000000
siesta:     13   -0.089986    0.034525    0.000000
siesta:     14    0.056952    0.062494    0.000000
siesta:     15    0.009557   -0.036113    0.000000
siesta:     16    0.000225    0.027936    0.000000
siesta:     17    0.005244    0.015591    0.000000
siesta:     18    0.083345   -0.047599    0.000000
siesta:     19   -0.131492   -0.077464    0.000000
siesta:     20    0.119075    0.248604    0.000000
siesta:     21   -0.029909   -0.133683    0.000000
siesta:     22   -0.085032    0.252039    0.000000
siesta:     23    0.157267   -0.077788    0.000000
siesta:     24   -0.074248   -0.050333    0.000000
siesta:     25    0.056968   -0.052527    0.000000
siesta:     26   -0.003108   -0.011048    0.000000
siesta:     27   -0.057383   -0.058170    0.000000
siesta:     28    0.064519    0.017834    0.000000
siesta:     29   -0.204302    0.136625    0.000000
siesta:     30    0.339398    0.432384    0.000000
siesta:     31   -0.189822   -0.204530    0.000000
siesta:     32   -0.004862    0.771231    0.000000
siesta:     33    0.163330   -0.213546    0.000000
siesta:     34   -0.307950    0.435702    0.000000
siesta:     35   -0.007472   -0.058586    0.000000
siesta:     36   -0.010329    0.148102    0.000000
siesta:     37    0.107171   -0.266512    0.000000
siesta:     38    0.521138    0.145335    0.000000
siesta:     39    0.386069    0.011797    0.000000
siesta:     40   -0.016322    0.628967    0.000000
siesta:     41   -0.126773   -0.116141    0.000000
siesta:     42    0.342518   -0.164399    0.000000
siesta:     43   -0.455608    0.179412    0.000000
siesta:     44    0.546249   -0.725479    0.000000
siesta:     45   -0.463371    0.006729    0.000000
siesta:     46   -0.005076   -0.939244    0.000000
siesta:     47   -0.035985    0.141822    0.000000
siesta:     48   -0.036920   -0.118989    0.000000
siesta:     49    0.193559    0.221491    0.000000
siesta:     50   -0.071764   -0.067929    0.000000
siesta:     51    0.123022    0.030328    0.000000
siesta:     52   -0.020410   -0.031737    0.000000
siesta:     53    0.015218    0.036895    0.000000
siesta:     54   -0.008462    0.005614    0.000000
siesta:     55   -0.371052    0.015380    0.000000
siesta:     56   -0.526474    0.146227    0.000000
siesta:     57    0.438587   -0.002779    0.000000
siesta:     58   -0.518919   -0.720370    0.000000
siesta:     59   -0.023512    0.003344    0.000000
siesta:     60    0.105127   -0.059418    0.000000
siesta:     61    0.473918    0.180247    0.000000
siesta:     62   -0.347126   -0.165766    0.000000
siesta:     63   -0.176483    0.221931    0.000000
siesta:     64    0.030727   -0.119396    0.000000
siesta:     65   -0.040777    0.031004    0.000000
siesta:     66    0.051774   -0.025935    0.000000
siesta:     67    0.037852    0.139338    0.000000
siesta:     68   -0.040930   -0.049138    0.000000
siesta:     69    0.018070    0.015006    0.000000
siesta:     70   -0.085956    0.065881    0.000000
siesta:     71    0.940789   -0.232395    0.000000
siesta:     72   -0.877278   -0.228360    0.000000
siesta: ----------------------------------------
siesta:    Tot    0.237268   -0.243039    0.000000

siesta: Stress tensor (static) (eV/Ang**3):
siesta:    -0.017550   -0.000213    0.000000
siesta:    -0.000213   -0.017394    0.000000
siesta:     0.000000    0.000000    0.000024

siesta: Cell volume =       1893.226895 Ang**3

siesta: Pressure (static):
siesta:                Solid            Molecule  Units
siesta:           0.00012677          0.00015699  Ry/Bohr**3
siesta:           0.01163983          0.01441419  eV/Ang**3
siesta:          18.64926338         23.09433463  kBar
(Free)E+ p_basis*V_orbitals  =      -11890.972101
(Free)Eharris+ p_basis*V_orbitals  =      -11890.971449

siesta: Electric dipole (a.u.)  =    0.000000    0.000000    0.000000
siesta: Electric dipole (Debye) =    0.000000    0.000000    0.000000

* Maximum dynamic memory allocated : Node    0 =   207 MB
* Maximum dynamic memory allocated : Node    1 =    74 MB
* Maximum dynamic memory allocated : Node    2 =    76 MB
* Maximum dynamic memory allocated : Node    3 =   196 MB
* Maximum dynamic memory allocated : Node    4 =   207 MB
* Maximum dynamic memory allocated : Node    5 =    74 MB
* Maximum dynamic memory allocated : Node    6 =    76 MB
* Maximum dynamic memory allocated : Node    7 =   191 MB

* Maximum memory occured during matrixMtoO                    

timer: CPU execution times:
timer:  Routine       Calls   Time/call    Tot.time        %
timer:  siesta            1    7641.700    7641.700   100.00
timer:  Setup             1       3.122       3.122     0.04
timer:  bands             3     270.709     812.127    10.63
timer:  writewave         1       0.021       0.021     0.00
timer:  KSV_init          1       0.002       0.002     0.00
timer:  IterMD            1    6817.865    6817.865    89.22
timer:  hsparse           1       0.259       0.259     0.00
timer:  overlap           1       4.587       4.587     0.06
timer:  IterSCF           1    6644.659    6644.659    86.95
timer:  kinefsm           2       2.385       4.769     0.06
timer:  nlefsm            2      19.387      38.774     0.51
timer:  DHSCF             2     124.429     248.857     3.26
timer:  DHSCF1            1       0.759       0.759     0.01
timer:  DHSCF2            1      34.225      34.225     0.45
timer:  REORD            18       0.010       0.183     0.00
timer:  POISON            3       2.311       6.932     0.09
timer:  DHSCF3            2      90.581     181.162     2.37
timer:  rhoofd            2      17.423      34.846     0.46
timer:  cellXC            2       3.531       7.063     0.09
timer:  vmat              2      46.411      92.823     1.21
timer:  MolMec            2       0.000       0.000     0.00
timer:  diagon            1    6480.714    6480.714    84.81
timer:  c-eigval        473       6.725    3181.014    41.63
timer:  c-buildHS       473       0.119      56.213     0.74
timer:  cdiag           825       6.838    5641.158    73.82
timer:  cdiag1          825       0.426     351.654     4.60
timer:  cdiag2          825       1.919    1583.041    20.72
timer:  cdiag3          825       3.970    3275.291    42.86
timer:  cdiag4          825       0.173     142.825     1.87
timer:  c-eigvec        352       7.222    2542.135    33.27
timer:  c-buildD        352       4.450    1566.462    20.50
timer:  DHSCF4            1      32.579      32.579     0.43
timer:  dfscf             1      30.704      30.704     0.40
timer:  overfsm           1       0.381       0.381     0.00
timer:  optical           1       7.500       7.500     0.10
  

elaps: ELAPSED times:
elaps:  Routine       Calls   Time/call    Tot.time        %
elaps:  siesta            1     956.319     956.319   100.00
elaps:  Setup             1       0.389       0.389     0.04
elaps:  bands             3      33.890     101.670    10.63
elaps:  writewave         1       0.002       0.002     0.00
elaps:  KSV_init          1       0.000       0.000     0.00
elaps:  IterMD            1     853.245     853.245    89.22
elaps:  hsparse           1       0.033       0.033     0.00
elaps:  overlap           1       0.518       0.518     0.05
elaps:  IterSCF           1     831.578     831.578    86.96
elaps:  kinefsm           2       0.270       0.541     0.06
elaps:  nlefsm            2       2.372       4.745     0.50
elaps:  DHSCF             2      17.203      34.406     3.60
elaps:  DHSCF1            1       0.098       0.098     0.01
elaps:  DHSCF2            1       4.281       4.281     0.45
elaps:  REORD            18       0.001       0.025     0.00
elaps:  POISON            3       0.289       0.868     0.09
elaps:  DHSCF3            2      11.333      22.667     2.37
elaps:  rhoofd            2       3.834       7.669     0.80
elaps:  cellXC            2       0.441       0.882     0.09
elaps:  vmat              2       5.808      11.617     1.21
elaps:  MolMec            2       0.000       0.000     0.00
elaps:  diagon            1     811.084     811.084    84.81
elaps:  c-eigval        473       0.841     398.021    41.62
elaps:  c-buildHS       473       0.016       7.667     0.80
elaps:  cdiag           825       0.846     698.058    72.99
elaps:  cdiag1          825       0.053      43.587     4.56
elaps:  cdiag2          825       0.240     198.085    20.71
elaps:  cdiag3          825       0.497     410.405    42.91
elaps:  cdiag4          825       0.022      18.412     1.93
elaps:  c-eigvec        352       0.886     311.835    32.61
elaps:  c-buildD        352       0.575     202.334    21.16
elaps:  DHSCF4            1       7.344       7.344     0.77
elaps:  dfscf             1       6.955       6.955     0.73
elaps:  overfsm           1       0.048       0.048     0.01
elaps:  optical           1       0.000       0.000     0.00
  
>> End of run:   9-DEC-2015  17:10:24
