Siesta Version:                                        siesta-3.2-pl-3
Architecture  : x86_64-unknown-linux-gnu--unknown
Compiler flags: mpiifort -g -O2 -fPIC -xSSE4.1 -fp-model source -shared-intel 
PARALLEL version

* Running on    8 nodes in parallel
>> Start of run:   5-DEC-2015   2:21:02

                           ***********************       
                           *  WELCOME TO SIESTA  *       
                           ***********************       

reinit: Reading from standard input
************************** Dump of input data file ****************************
#(1) General system descriptors
SystemName            GRP_doping    # Descriptive name of the system
SystemLabel           GRP_doping    # Short name for naming files
%include STRUCT.fdf
%include KPT.fdf
%include BASIS.fdf
#%include TS.fdf # for transiesta calculation
#(4) DFT, Grid, SCF
XC.functional         GGA           # LDA or GGA (default = LDA)
XC.authors            PBE           # CA (Ceperley-Aldr) = PZ
                                    #    (Perdew-Zunger) - LDA - Default
                                    # PW92 (Perdew-Wang-92) - LDA
                                    # PBE (Perdew-Burke-Ernzerhof) - GGA
MeshCutoff            200.000000    Ry      # Default: 50.0 Ry ~ 0.444 Bohr
                                    #         100.0 Ry ~ 0.314 Bohr
MaxSCFIterations      500           # Default: 50
DM.MixingWeight       0.05          # Default: 0.25
DM.NumberPulay        10            # Default: 0
DM.PulayOnFile        F             # SystemLabel.P1, SystemLabel.P2
DM.Tolerance          1.d-4         # Default: 1.d-4
DM.UseSaveDM          .true.        # because of the bug
SCFMustConverge       .true.
NeglNonOverlapInt     F             # Default: F
#(5) Eigenvalue problem: order-N or diagonalization
SolutionMethod        Diagon        # or Transiesta
ElectronicTemperature 300.0 K       # Default: 300.0 K
#(6) Molecular dynamics and relaxations
#MD.TypeOfRun          CG            # Type of dynamics:
#MD.VariableCell       F
#MD.NumCGsteps         0           # 0 for single-point / 100 for gopt
#MD.MaxCGDispl         0.2 Bohr      # Default: 0.2 Bohr
#MD.MaxForceTol        0.02 eV/Ang   # Default: 0.04 eV/Ang
#MD.MaxStressTol       1.0 GPa       # Default: 1.0 GPa
# Geometry Constraints
#%block GeometryConstraints
#	position from 1 to 44
#%endblock GeometryConstraints
************************** End of input data file *****************************

reinit: -----------------------------------------------------------------------
reinit: System Name: GRP_doping
reinit: -----------------------------------------------------------------------
reinit: System Label: GRP_doping                                                  
reinit: -----------------------------------------------------------------------

initatom: Reading input for the pseudopotentials and atomic orbitals ----------
 Species number:            1  Label: N Atomic number:           7
 Species number:            2  Label: C Atomic number:           6
Ground state valence configuration:   2s02  2p03
Reading pseudopotential information in formatted form from N.psf

Valence configuration for pseudopotential generation:
2s( 2.00) rc: 1.48
2p( 3.00) rc: 1.48
3d( 0.00) rc: 1.48
4f( 0.00) rc: 1.48
Ground state valence configuration:   2s02  2p02
Reading pseudopotential information in formatted form from C.psf

Valence configuration for pseudopotential generation:
2s( 2.00) rc: 1.54
2p( 2.00) rc: 1.54
3d( 0.00) rc: 1.54
4f( 0.00) rc: 1.54
For N, standard SIESTA heuristics set lmxkb to 3
 (one more than the basis l, including polarization orbitals).
Use PS.lmax or PS.KBprojectors blocks to override.
For C, standard SIESTA heuristics set lmxkb to 3
 (one more than the basis l, including polarization orbitals).
Use PS.lmax or PS.KBprojectors blocks to override.

<basis_specs>
===============================================================================
N                    Z=   7    Mass=  14.010        Charge= 0.17977+309
Lmxo=1 Lmxkb= 3    BasisType=split      Semic=F
L=0  Nsemic=0  Cnfigmx=2
          n=1  nzeta=2  polorb=0
            splnorm:   0.15000    
               vcte:    0.0000    
               rinn:    0.0000    
                rcs:    0.0000      0.0000    
            lambdas:    1.0000      1.0000    
L=1  Nsemic=0  Cnfigmx=2
          n=1  nzeta=2  polorb=1
            splnorm:   0.15000    
               vcte:    0.0000    
               rinn:    0.0000    
                rcs:    0.0000      0.0000    
            lambdas:    1.0000      1.0000    
-------------------------------------------------------------------------------
L=0  Nkbl=1  erefs: 0.17977+309
L=1  Nkbl=1  erefs: 0.17977+309
L=2  Nkbl=1  erefs: 0.17977+309
L=3  Nkbl=1  erefs: 0.17977+309
===============================================================================
</basis_specs>

atom: Called for N                     (Z =   7)

read_vps: Pseudopotential generation method:
read_vps: ATM3      Troullier-Martins                       
Total valence charge:    5.00000

read_vps: Pseudopotential includes a core correction:
read_vps: Pseudo-core for xc-correction

xc_check: Exchange-correlation functional:
xc_check: GGA Perdew, Burke & Ernzerhof 1996
V l=0 = -2*Zval/r beyond r=  1.4606
V l=1 = -2*Zval/r beyond r=  1.4606
V l=2 = -2*Zval/r beyond r=  1.4606
V l=3 = -2*Zval/r beyond r=  1.4606
All V_l potentials equal beyond r=  1.4606
This should be close to max(r_c) in ps generation
All pots = -2*Zval/r beyond r=  1.4606

VLOCAL1: 99.0% of the norm of Vloc inside     20.347 Ry
VLOCAL1: 99.9% of the norm of Vloc inside     46.372 Ry
atom: Maximum radius for 4*pi*r*r*local-pseudopot. charge    1.76189
atom: Maximum radius for r*vlocal+2*Zval:    1.53550
GHOST: No ghost state for L =  0
GHOST: No ghost state for L =  1
GHOST: No ghost state for L =  2
GHOST: No ghost state for L =  3

KBgen: Kleinman-Bylander projectors: 
   l= 0   rc=  1.634559   el= -1.363963   Ekb=  5.296955   kbcos=  0.335621
   l= 1   rc=  1.614250   el= -0.521451   Ekb= -5.259161   kbcos= -0.433408
   l= 2   rc=  1.718383   el=  0.001991   Ekb= -1.271464   kbcos= -0.007566
   l= 3   rc=  1.761893   el=  0.003093   Ekb= -0.494769   kbcos= -0.001015

KBgen: Total number of  Kleinman-Bylander projectors:   16
atom: -------------------------------------------------------------------------

atom: SANKEY-TYPE ORBITALS:
atom: Selected multiple-zeta basis: split     

SPLIT: Orbitals with angular momentum L= 0

SPLIT: Basis orbitals for state 2s

SPLIT: PAO cut-off radius determined from an
SPLIT: energy shift=  0.007350 Ry

   izeta = 1
                 lambda =    1.000000
                     rc =    4.071465
                 energy =   -1.356470
                kinetic =    1.176977
    potential(screened) =   -2.533447
       potential(ionic) =   -8.057990

   izeta = 2
                 rmatch =    2.905100
              splitnorm =    0.150000
                 energy =   -1.158343
                kinetic =    1.813009
    potential(screened) =   -2.971352
       potential(ionic) =   -8.901931

SPLIT: Orbitals with angular momentum L= 1

SPLIT: Basis orbitals for state 2p

SPLIT: PAO cut-off radius determined from an
SPLIT: energy shift=  0.007350 Ry

   izeta = 1
                 lambda =    1.000000
                     rc =    4.972977
                 energy =   -0.513884
                kinetic =    3.441732
    potential(screened) =   -3.955616
       potential(ionic) =   -9.287901

   izeta = 2
                 rmatch =    3.054066
              splitnorm =    0.150000
                 energy =   -0.318226
                kinetic =    5.125348
    potential(screened) =   -5.443573
       potential(ionic) =  -11.380999

POLgen: Perturbative polarization orbital with L=  2

POLgen: Polarization orbital for state 2p

   izeta = 1
                     rc =    4.972977
                 energy =    1.607437
                kinetic =    3.268125
    potential(screened) =   -1.660688
       potential(ionic) =   -5.973652
atom: Total number of Sankey-type orbitals: 13

atm_pop: Valence configuration (for local Pseudopot. screening):
 2s( 2.00)                                                            
 2p( 3.00)                                                            
Vna: chval, zval:    5.00000   5.00000

Vna:  Cut-off radius for the neutral-atom potential:   4.972977
comcore: Pseudo-core radius Rcore=  1.554824

atom: _________________________________________________________________________

<basis_specs>
===============================================================================
C                    Z=   6    Mass=  12.010        Charge= 0.17977+309
Lmxo=1 Lmxkb= 3    BasisType=split      Semic=F
L=0  Nsemic=0  Cnfigmx=2
          n=1  nzeta=2  polorb=0
            splnorm:   0.15000    
               vcte:    0.0000    
               rinn:    0.0000    
                rcs:    0.0000      0.0000    
            lambdas:    1.0000      1.0000    
L=1  Nsemic=0  Cnfigmx=2
          n=1  nzeta=2  polorb=1
            splnorm:   0.15000    
               vcte:    0.0000    
               rinn:    0.0000    
                rcs:    0.0000      0.0000    
            lambdas:    1.0000      1.0000    
-------------------------------------------------------------------------------
L=0  Nkbl=1  erefs: 0.17977+309
L=1  Nkbl=1  erefs: 0.17977+309
L=2  Nkbl=1  erefs: 0.17977+309
L=3  Nkbl=1  erefs: 0.17977+309
===============================================================================
</basis_specs>

atom: Called for C                     (Z =   6)

read_vps: Pseudopotential generation method:
read_vps: ATM3      Troullier-Martins                       
Total valence charge:    4.00000

read_vps: Pseudopotential includes a core correction:
read_vps: Pseudo-core for xc-correction

xc_check: Exchange-correlation functional:
xc_check: GGA Perdew, Burke & Ernzerhof 1996
V l=0 = -2*Zval/r beyond r=  1.5227
V l=1 = -2*Zval/r beyond r=  1.5227
V l=2 = -2*Zval/r beyond r=  1.5227
V l=3 = -2*Zval/r beyond r=  1.5038
All V_l potentials equal beyond r=  1.5227
This should be close to max(r_c) in ps generation
All pots = -2*Zval/r beyond r=  1.5227

VLOCAL1: 99.0% of the norm of Vloc inside     18.722 Ry
VLOCAL1: 99.9% of the norm of Vloc inside     42.668 Ry
atom: Maximum radius for 4*pi*r*r*local-pseudopot. charge    1.83678
atom: Maximum radius for r*vlocal+2*Zval:    1.58088
GHOST: No ghost state for L =  0
GHOST: No ghost state for L =  1
GHOST: No ghost state for L =  2
GHOST: No ghost state for L =  3

KBgen: Kleinman-Bylander projectors: 
   l= 0   rc=  1.704034   el= -1.009801   Ekb=  5.335044   kbcos=  0.316824
   l= 1   rc=  1.704034   el= -0.388707   Ekb= -3.785862   kbcos= -0.366464
   l= 2   rc=  1.791422   el=  0.001971   Ekb= -0.970471   kbcos= -0.009212
   l= 3   rc=  1.859892   el=  0.003065   Ekb= -0.399525   kbcos= -0.001223

KBgen: Total number of  Kleinman-Bylander projectors:   16
atom: -------------------------------------------------------------------------

atom: SANKEY-TYPE ORBITALS:
atom: Selected multiple-zeta basis: split     

SPLIT: Orbitals with angular momentum L= 0

SPLIT: Basis orbitals for state 2s

SPLIT: PAO cut-off radius determined from an
SPLIT: energy shift=  0.007350 Ry

   izeta = 1
                 lambda =    1.000000
                     rc =    4.632753
                 energy =   -1.002270
                kinetic =    0.855760
    potential(screened) =   -1.858031
       potential(ionic) =   -5.417575

   izeta = 2
                 rmatch =    3.431921
              splitnorm =    0.150000
                 energy =   -0.867111
                kinetic =    1.300804
    potential(screened) =   -2.167915
       potential(ionic) =   -5.962684

SPLIT: Orbitals with angular momentum L= 1

SPLIT: Basis orbitals for state 2p

SPLIT: PAO cut-off radius determined from an
SPLIT: energy shift=  0.007350 Ry

   izeta = 1
                 lambda =    1.000000
                     rc =    5.658549
                 energy =   -0.381140
                kinetic =    2.399701
    potential(screened) =   -2.780841
       potential(ionic) =   -6.206085

   izeta = 2
                 rmatch =    3.653288
              splitnorm =    0.150000
                 energy =   -0.249149
                kinetic =    3.542762
    potential(screened) =   -3.791911
       potential(ionic) =   -7.581078

POLgen: Perturbative polarization orbital with L=  2

POLgen: Polarization orbital for state 2p

   izeta = 1
                     rc =    5.658549
                 energy =    1.109913
                kinetic =    2.304789
    potential(screened) =   -1.194876
       potential(ionic) =   -4.013592
atom: Total number of Sankey-type orbitals: 13

atm_pop: Valence configuration (for local Pseudopot. screening):
 2s( 2.00)                                                            
 2p( 2.00)                                                            
Vna: chval, zval:    4.00000   4.00000

Vna:  Cut-off radius for the neutral-atom potential:   5.658549
comcore: Pseudo-core radius Rcore=  1.791422

atom: _________________________________________________________________________

prinput: Basis input ----------------------------------------------------------

PAO.BasisType split     

%block ChemicalSpeciesLabel
    1    7 N                       # Species index, atomic number, species label
    2    6 C                       # Species index, atomic number, species label
%endblock ChemicalSpeciesLabel

%block PAO.Basis                 # Define Basis set
N                     2                    # Species label, number of l-shells
 n=2   0   2                         # n, l, Nzeta 
   4.071      2.905   
   1.000      1.000   
 n=2   1   2 P   1                   # n, l, Nzeta, Polarization, NzetaPol
   4.973      3.054   
   1.000      1.000   
C                     2                    # Species label, number of l-shells
 n=2   0   2                         # n, l, Nzeta 
   4.633      3.432   
   1.000      1.000   
 n=2   1   2 P   1                   # n, l, Nzeta, Polarization, NzetaPol
   5.659      3.653   
   1.000      1.000   
%endblock PAO.Basis

prinput: ----------------------------------------------------------------------

coor:   Atomic-coordinates input format  =     Cartesian coordinates
coor:                                          (in Angstroms)

siesta: Atomic coordinates (Bohr) and species
siesta:      2.23554   1.32097   0.00000  1        1
siesta:      4.56367   2.66461   0.00000  1        2
siesta:     32.50291  13.41944   0.00000  1        3
siesta:     27.84639   5.35379   0.00000  1        4
siesta:     27.84714  21.48508   0.00000  1        5
siesta:     11.54782   1.32097   0.00000  1        6
siesta:     13.87595   2.66461   0.00000  1        7
siesta:     20.86199   1.32097   0.00000  1        8
siesta:     23.19013   2.66461   0.00000  1        9
siesta:      9.21994   5.35379   0.00000  1       10
siesta:     18.53411   5.35379   0.00000  1       11
siesta:      6.89205   9.38661   0.00000  1       12
siesta:      9.22019  10.73026   0.00000  1       13
siesta:     16.20434   9.38661   0.00000  1       14
siesta:     18.53247  10.73026   0.00000  1       15
siesta:     13.87645  13.41944   0.00000  1       16
siesta:     11.54857  17.45226   0.00000  1       17
siesta:     13.87670  18.79590   0.00000  1       18
siesta:     18.53486  21.48508   0.00000  1       19
siesta:     25.51851   9.38661   0.00000  1       20
siesta:     27.84664  10.73026   0.00000  1       21
siesta:     23.19063  13.41944   0.00000  1       22
siesta:     20.86274  17.45226   0.00000  1       23
siesta:     23.19088  18.79590   0.00000  1       24
siesta:     30.17503  17.45226   0.00000  1       25
siesta:     32.50316  18.79590   0.00000  1       26
siesta:     37.16131  21.48508   0.00000  1       27
siesta:     32.50328  21.48508   0.00000  2       28
siesta:     34.83141  22.82873   0.00000  2       29
siesta:     34.83116  17.45226   0.00000  2       30
siesta:     37.15930  18.79590   0.00000  2       31
siesta:     34.83104  14.76308   0.00000  2       32
siesta:     30.17465   9.38661   0.00000  2       33
siesta:     32.50278  10.73026   0.00000  2       34
siesta:     30.17453   6.69743   0.00000  2       35
siesta:     30.17527  22.82873   0.00000  2       36
siesta:      6.89168   1.32097   0.00000  2       37
siesta:      9.21981   2.66461   0.00000  2       38
siesta:     16.20396   1.32097   0.00000  2       39
siesta:     18.53210   2.66461   0.00000  2       40
siesta:     25.51813   1.32097   0.00000  2       41
siesta:     27.84627   2.66461   0.00000  2       42
siesta:      4.56380   5.35379   0.00000  2       43
siesta:      6.89193   6.69743   0.00000  2       44
siesta:     11.54807   6.69743   0.00000  2       45
siesta:     13.87608   5.35379   0.00000  2       46
siesta:     16.20421   6.69743   0.00000  2       47
siesta:     20.86224   6.69743   0.00000  2       48
siesta:     23.19025   5.35379   0.00000  2       49
siesta:     25.51838   6.69743   0.00000  2       50
siesta:     11.54820   9.38661   0.00000  2       51
siesta:     13.87633  10.73026   0.00000  2       52
siesta:     20.86237   9.38661   0.00000  2       53
siesta:     23.19050  10.73026   0.00000  2       54
siesta:      9.22031  13.41944   0.00000  2       55
siesta:     11.54845  14.76308   0.00000  2       56
siesta:     16.20459  14.76308   0.00000  2       57
siesta:     18.53448  13.41944   0.00000  2       58
siesta:     20.86262  14.76308   0.00000  2       59
siesta:     16.20471  17.45226   0.00000  2       60
siesta:     18.53284  18.79590   0.00000  2       61
siesta:     13.87683  21.48508   0.00000  2       62
siesta:     16.20496  22.82873   0.00000  2       63
siesta:     20.86299  22.82873   0.00000  2       64
siesta:     25.51876  14.76308   0.00000  2       65
siesta:     27.84677  13.41944   0.00000  2       66
siesta:     30.17490  14.76308   0.00000  2       67
siesta:     25.51888  17.45226   0.00000  2       68
siesta:     27.84702  18.79590   0.00000  2       69
siesta:     23.19100  21.48508   0.00000  2       70
siesta:     25.51913  22.82873   0.00000  2       71
siesta:     39.48945  22.82873   0.00000  2       72

siesta: System type = slab      

initatomlists: Number of atoms, orbitals, and projectors:     72   936  1152

siesta: ******************** Simulation parameters ****************************
siesta:
siesta: The following are some of the parameters of the simulation.
siesta: A complete list of the parameters used, including default values,
siesta: can be found in file out.fdf
siesta:
redata: Non-Collinear-spin run           =     F
redata: SpinPolarized (Up/Down) run      =     F
redata: Number of spin components        =     1
redata: Long output                      =     F
redata: Number of Atomic Species         =        2
redata: Charge density info will appear in .RHO file
redata: Write Mulliken Pop.              =     NO
redata: Mesh Cutoff                      =   200.0000  Ry
redata: Net charge of the system         =     0.0000 |e|
redata: Max. number of SCF Iter          =      500
redata: SCF convergence failure will abort job
redata: Performing Pulay mixing using    =    10 iterations
redata: Mix DM in first SCF step ?       =     F
redata: Write Pulay info on disk?        =     F
redata: Discard 1st Pulay DM after  kick =     F
redata: New DM Mixing Weight             =     0.0500
redata: New DM Occupancy tolerance       = 0.000000000001
redata: No kicks to SCF
redata: DM Mixing Weight for Kicks       =     0.5000
redata: DM Tolerance for SCF             =     0.000100
redata: Require Energy convergence for SCF =     F
redata: DM Energy tolerance for SCF      =     0.000100 eV
redata: Require Harris convergence for SCF =     F
redata: DM Harris energy tolerance for SCF =     0.000100 eV
redata: Using Saved Data (generic)   =     F
redata: Use continuation files for DM    =     T
redata: Neglect nonoverlap interactions  =     F
redata: Method of Calculation            =     Diagonalization
redata: Divide and Conquer               =     T
redata: Electronic Temperature           =     0.0019  Ry
redata: Fix the spin of the system       =     F
redata: Dynamics option                  =     Verlet MD run
redata: Initial MD time step             =        1
redata:   Final MD time step             =        1
redata: Length of MD time step           =     1.0000  fs
redata: Initial Temperature of MD run    =     0.0000  K
redata: Perform a MD quench              =     F
redata: ***********************************************************************
Total number of electrons:   315.000000
Total ionic charge:   315.000000

* ProcessorY, Blocksize:    2  24

k-point displ. along   1 input, could be:     0.00    0.50
k-point displ. along   2 input, could be:     0.00    0.50
 Kpoints in:          364 . Kpoints trimmed:          352

siesta: k-grid: Number of k-points =   352
siesta: k-grid: Cutoff (effective) =     5.000 Ang
siesta: k-grid: Supercell and displacements
siesta: k-grid:   26   0   0      0.000
siesta: k-grid:    0  26   0      0.000
siesta: k-grid:    0   0   1      0.000
Naive supercell factors:     2    2    2

superc: Internal auxiliary supercell:     2 x     2 x     2  =       8
superc: Number of atoms, orbitals, and projectors:    576   7488   9216

* Maximum dynamic memory allocated =     6 MB

siesta:                 ==============================
                            Begin MD step =      1
                        ==============================

superc: Internal auxiliary supercell:     2 x     2 x     2  =       8
superc: Number of atoms, orbitals, and projectors:    576   7488   9216

outcell: Unit cell vectors (Ang):
       14.785000    0.000000    0.000000
        7.393000   12.805052    0.000000
        0.000000    0.000000   10.000000

outcell: Cell vector modules (Ang)   :   14.785000   14.786000   10.000000
outcell: Cell angles (23,13,12) (deg):     90.0000     90.0000     60.0000
outcell: Cell volume (Ang**3)        :   1893.2269
New_DM. Step:     1
Initializing Density Matrix...

InitMesh: MESH =   120 x   120 x    90 =     1296000
InitMesh: Mesh cutoff (required, used) =   200.000   223.865 Ry

* Maximum dynamic memory allocated =   175 MB

stepf: Fermi-Dirac step function

siesta: Program's energy decomposition (eV):
siesta: Ebs     =     -4928.001819
siesta: Eions   =     22743.175864
siesta: Ena     =      4240.728185
siesta: Ekin    =      8644.090471
siesta: Enl     =      -529.728061
siesta: DEna    =        -0.000012
siesta: DUscf   =         0.000000
siesta: DUext   =         0.000000
siesta: Exc     =     -4604.886829
siesta: eta*DQ  =         0.000000
siesta: Emadel  =         0.000000
siesta: Emeta   =         0.000000
siesta: Emolmec =         0.000000
siesta: Ekinion =         0.000000
siesta: Eharris =    -14843.926172
siesta: Etot    =    -14992.972110
siesta: FreeEng =    -14992.972110

siesta: iscf   Eharris(eV)      E_KS(eV)   FreeEng(eV)   dDmax  Ef(eV)
siesta:    1   -14843.9262   -14992.9721   -14992.9721  1.9503 -3.4516
timer: Routine,Calls,Time,% = IterSCF        1    7321.850  99.84
elaps: Routine,Calls,Wall,% = IterSCF        1     916.508  99.84
siesta:    2   -14848.8496   -14822.7941   -14822.8191  0.2139 -2.1826
siesta:    3   -14841.3512   -14836.9687   -14837.0000  0.1692 -2.2534
siesta:    4   -14834.1788   -14833.4030   -14833.4275  0.1085 -2.3013
siesta:    5   -14832.4909   -14830.9800   -14831.0035  0.0559 -2.3752
siesta:    6   -14832.2412   -14831.1497   -14831.1739  0.0338 -2.4458
siesta:    7   -14832.1663   -14830.6136   -14830.6377  0.0063 -2.5677
siesta:    8   -14832.1485   -14831.2573   -14831.2812  0.0073 -2.5651
siesta:    9   -14832.1492   -14831.3647   -14831.3889  0.0059 -2.5626
siesta:   10   -14832.1468   -14831.7631   -14831.7873  0.0034 -2.5618
siesta:   11   -14832.1462   -14831.9981   -14832.0222  0.0007 -2.5606
siesta:   12   -14832.1462   -14832.0129   -14832.0370  0.0005 -2.5603
siesta:   13   -14832.1461   -14832.0659   -14832.0900  0.0004 -2.5602
siesta:   14   -14832.1461   -14832.1140   -14832.1380  0.0001 -2.5597
siesta:   15   -14832.1461   -14832.1274   -14832.1515  0.0001 -2.5597

siesta: E_KS(eV) =           -14832.1373

siesta: E_KS - E_eggbox =    -14832.1373

siesta: Atomic forces (eV/Ang):
----------------------------------------
   Tot    0.508847   -0.119542    0.000000
----------------------------------------
   Max    1.054335
   Res    0.421271    sqrt( Sum f_i^2 / 3N )
----------------------------------------
   Max    1.054335    constrained

Stress-tensor-Voigt (kbar):       61.34       59.14        0.36        1.80        0.00        0.00
(Free)E + p*V (eV/cell)   -14879.7588
Target enthalpy (eV/cell)   -14832.1613

siesta: Stress tensor (static) (eV/Ang**3):
         0.038287    0.001125    0.000000
         0.001125    0.036913    0.000000
         0.000000    0.000000    0.000222

siesta: Pressure (static):        -40.28065393  kBar

siesta: Stress tensor (total) (eV/Ang**3):
         0.038287    0.001125    0.000000
         0.001125    0.036913    0.000000
         0.000000    0.000000    0.000222

siesta: Pressure (total):        -40.28065393  kBar

siesta: Temp_ion =       0.000 K

* Maximum dynamic memory allocated =   190 MB

siesta: Program's energy decomposition (eV):
siesta: Ebs     =     -4664.841136
siesta: Eions   =     22743.175864
siesta: Ena     =      4240.728185
siesta: Ekin    =     10095.239884
siesta: Enl     =     -1595.909430
siesta: DEna    =      -174.644045
siesta: DUscf   =        21.404301
siesta: DUext   =         0.000000
siesta: Exc     =     -4675.780307
siesta: eta*DQ  =         0.000000
siesta: Emadel  =         0.000000
siesta: Emeta   =         0.000000
siesta: Emolmec =         0.000000
siesta: Ekinion =         0.000000
siesta: Eharris =    -14832.146052
siesta: Etot    =    -14832.137276
siesta: FreeEng =    -14832.161343

siesta: Final energy (eV):
siesta:  Band Struct. =   -4664.841136
siesta:       Kinetic =   10095.239884
siesta:       Hartree =   28284.909594
siesta:    Ext. field =       0.000000
siesta:   Exch.-corr. =   -4675.780307
siesta:  Ion-electron =  -66046.887226
siesta:       Ion-ion =   17510.380779
siesta:       Ekinion =       0.000000
siesta:         Total =  -14832.137276

siesta: Atomic forces (eV/Ang):
siesta:      1    0.536750    0.281881    0.000000
siesta:      2    0.197231    0.143534    0.000000
siesta:      3    0.687553    0.356883    0.000000
siesta:      4    0.686542    0.356034    0.000000
siesta:      5    0.685367    0.360617    0.000000
siesta:      6    0.558396    0.275511    0.000000
siesta:      7    0.198800    0.148581    0.000000
siesta:      8    0.523789    0.281680    0.000000
siesta:      9    0.196401    0.144094    0.000000
siesta:     10    0.686278    0.356000    0.000000
siesta:     11    0.650962    0.364925    0.000000
siesta:     12    0.545911    0.296825    0.000000
siesta:     13    0.198334    0.150333    0.000000
siesta:     14    0.560190    0.297701    0.000000
siesta:     15    0.232446    0.139175    0.000000
siesta:     16    0.689218    0.354750    0.000000
siesta:     17    0.544098    0.294439    0.000000
siesta:     18    0.198028    0.150407    0.000000
siesta:     19    0.649718    0.365880    0.000000
siesta:     20    0.555511    0.293426    0.000000
siesta:     21    0.199678    0.150527    0.000000
siesta:     22    0.685818    0.355898    0.000000
siesta:     23    0.530920    0.297411    0.000000
siesta:     24    0.196410    0.151158    0.000000
siesta:     25    0.556929    0.295644    0.000000
siesta:     26    0.198373    0.148605    0.000000
siesta:     27    0.647724    0.365095    0.000000
siesta:     28    0.008351   -0.210361    0.000000
siesta:     29    0.408259   -0.841806    0.000000
siesta:     30   -0.168833    0.084447    0.000000
siesta:     31   -0.540497    0.759470    0.000000
siesta:     32   -1.018869   -0.592924    0.000000
siesta:     33   -0.169791    0.078880    0.000000
siesta:     34   -0.551298    0.758350    0.000000
siesta:     35   -1.019670   -0.591284    0.000000
siesta:     36   -1.034900   -0.566610    0.000000
siesta:     37   -0.167007    0.063660    0.000000
siesta:     38   -0.562521    0.756255    0.000000
siesta:     39   -0.162364    0.064600    0.000000
siesta:     40   -0.528943    0.753012    0.000000
siesta:     41   -0.165454    0.064308    0.000000
siesta:     42   -0.550769    0.755137    0.000000
siesta:     43   -0.008443   -0.211984    0.000000
siesta:     44    0.373848   -0.852922    0.000000
siesta:     45   -1.032858   -0.586506    0.000000
siesta:     46    0.009456   -0.218946    0.000000
siesta:     47    0.401818   -0.858913    0.000000
siesta:     48   -1.036475   -0.589293    0.000000
siesta:     49    0.004325   -0.217953    0.000000
siesta:     50    0.376983   -0.854041    0.000000
siesta:     51   -0.171807    0.081425    0.000000
siesta:     52   -0.561182    0.761722    0.000000
siesta:     53   -0.194598    0.087183    0.000000
siesta:     54   -0.565333    0.762762    0.000000
siesta:     55   -0.008531   -0.210449    0.000000
siesta:     56    0.374945   -0.852509    0.000000
siesta:     57   -1.002832   -0.592197    0.000000
siesta:     58   -0.033539   -0.204880    0.000000
siesta:     59    0.370845   -0.854860    0.000000
siesta:     60   -0.167641    0.081031    0.000000
siesta:     61   -0.528530    0.755831    0.000000
siesta:     62    0.023239   -0.217432    0.000000
siesta:     63    0.411414   -0.842246    0.000000
siesta:     64   -1.038115   -0.569991    0.000000
siesta:     65   -1.032013   -0.586783    0.000000
siesta:     66    0.003413   -0.216342    0.000000
siesta:     67    0.378041   -0.853190    0.000000
siesta:     68   -0.171913    0.081564    0.000000
siesta:     69   -0.561281    0.761617    0.000000
siesta:     70    0.002390   -0.213275    0.000000
siesta:     71    0.374487   -0.836931    0.000000
siesta:     72   -1.054335   -0.563179    0.000000
siesta: ----------------------------------------
siesta:    Tot    0.508847   -0.119542    0.000000

siesta: Stress tensor (static) (eV/Ang**3):
siesta:     0.038287    0.001125    0.000000
siesta:     0.001125    0.036913    0.000000
siesta:     0.000000    0.000000    0.000222

siesta: Cell volume =       1893.226895 Ang**3

siesta: Pressure (static):
siesta:                Solid            Molecule  Units
siesta:          -0.00027382         -0.00015396  Ry/Bohr**3
siesta:          -0.02514093         -0.01413643  eV/Ang**3
siesta:         -40.28065393        -22.64929475  kBar
(Free)E+ p_basis*V_orbitals  =      -14805.283743
(Free)Eharris+ p_basis*V_orbitals  =      -14805.302356

siesta: Electric dipole (a.u.)  =    0.000000    0.000000    0.000000
siesta: Electric dipole (Debye) =    0.000000    0.000000    0.000000

* Maximum dynamic memory allocated : Node    0 =   190 MB
* Maximum dynamic memory allocated : Node    1 =    70 MB
* Maximum dynamic memory allocated : Node    2 =    72 MB
* Maximum dynamic memory allocated : Node    3 =   180 MB
* Maximum dynamic memory allocated : Node    4 =   188 MB
* Maximum dynamic memory allocated : Node    5 =    70 MB
* Maximum dynamic memory allocated : Node    6 =    72 MB
* Maximum dynamic memory allocated : Node    7 =   174 MB

* Maximum memory occured during matrixMtoO                    

timer: CPU execution times:
timer:  Routine       Calls   Time/call    Tot.time        %
timer:  siesta            1  108740.351  108740.351   100.00
timer:  Setup             1       3.098       3.098     0.00
timer:  bands             1       0.008       0.008     0.00
timer:  writewave         1       0.018       0.018     0.00
timer:  KSV_init          1       0.000       0.000     0.00
timer:  IterMD            1  108729.084  108729.084    99.99
timer:  hsparse           1       0.261       0.261     0.00
timer:  overlap           1       7.683       7.683     0.01
timer:  IterSCF          15    7238.789  108581.840    99.85
timer:  kinefsm           2       3.923       7.845     0.01
timer:  nlefsm            2      17.590      35.180     0.03
timer:  DHSCF            16      81.194    1299.111     1.19
timer:  DHSCF1            1       0.815       0.815     0.00
timer:  DHSCF2            1      33.240      33.240     0.03
timer:  REORD           130       0.013       1.746     0.00
timer:  POISON           17       3.683      62.619     0.06
timer:  DHSCF3           16      77.270    1236.313     1.14
timer:  rhoofd           16      14.033     224.524     0.21
timer:  cellXC           16       3.580      57.279     0.05
timer:  vmat             16      38.928     622.854     0.57
timer:  MolMec            2       0.000       0.000     0.00
timer:  diagon           15    7155.670  107335.049    98.71
timer:  c-eigval       5280       7.237   38210.347    35.14
timer:  c-buildHS      5280       0.199    1051.428     0.97
timer:  cdiag         10560       7.418   78337.296    72.04
timer:  cdiag1        10560       0.465    4910.237     4.52
timer:  cdiag2        10560       1.995   21066.348    19.37
timer:  cdiag3        10560       4.180   44143.647    40.60
timer:  cdiag4        10560       0.245    2590.599     2.38
timer:  c-eigvec       5280       7.884   41629.920    38.28
timer:  c-buildD       5280       5.196   27433.895    25.23
timer:  DHSCF4            1      27.328      27.328     0.03
timer:  dfscf             1      25.582      25.582     0.02
timer:  overfsm           1       0.365       0.365     0.00
timer:  optical           1       7.144       7.144     0.01
  

elaps: ELAPSED times:
elaps:  Routine       Calls   Time/call    Tot.time        %
elaps:  siesta            1   13610.745   13610.745   100.00
elaps:  Setup             1       0.387       0.387     0.00
elaps:  bands             1       0.001       0.001     0.00
elaps:  writewave         1       0.002       0.002     0.00
elaps:  KSV_init          1       0.000       0.000     0.00
elaps:  IterMD            1   13609.336   13609.336    99.99
elaps:  hsparse           1       0.031       0.031     0.00
elaps:  overlap           1       0.965       0.965     0.01
elaps:  IterSCF          15     906.061   13590.912    99.85
elaps:  kinefsm           2       0.494       0.989     0.01
elaps:  nlefsm            2       2.240       4.480     0.03
elaps:  DHSCF            16      10.335     165.362     1.21
elaps:  DHSCF1            1       0.110       0.110     0.00
elaps:  DHSCF2            1       4.149       4.149     0.03
elaps:  REORD           130       0.002       0.220     0.00
elaps:  POISON           17       0.463       7.865     0.06
elaps:  DHSCF3           16       9.668     154.690     1.14
elaps:  rhoofd           16       3.068      49.086     0.36
elaps:  cellXC           16       0.447       7.153     0.05
elaps:  vmat             16       4.871      77.931     0.57
elaps:  MolMec            2       0.000       0.000     0.00
elaps:  diagon           15     895.692   13435.384    98.71
elaps:  c-eigval       5280       0.906    4781.352    35.13
elaps:  c-buildHS      5280       0.026     138.936     1.02
elaps:  cdiag         10560       0.913    9637.904    70.81
elaps:  cdiag1        10560       0.057     602.070     4.42
elaps:  cdiag2        10560       0.250    2635.915    19.37
elaps:  cdiag3        10560       0.524    5531.925    40.64
elaps:  cdiag4        10560       0.034     353.780     2.60
elaps:  c-eigvec       5280       0.959    5065.417    37.22
elaps:  c-buildD       5280       0.678    3579.870    26.30
elaps:  DHSCF4            1       6.217       6.217     0.05
elaps:  dfscf             1       5.860       5.860     0.04
elaps:  overfsm           1       0.047       0.047     0.00
elaps:  optical           1       0.000       0.000     0.00
  
>> End of run:   5-DEC-2015   6:07:53
