Siesta Version:                                        siesta-3.2-pl-3
Architecture  : x86_64-unknown-linux-gnu--unknown
Compiler flags: mpiifort -g -O2 -fPIC -xSSE4.1 -fp-model source -shared-intel 
PARALLEL version

* Running on    8 nodes in parallel
>> Start of run:   6-DEC-2015   1:19:51

                           ***********************       
                           *  WELCOME TO SIESTA  *       
                           ***********************       

reinit: Reading from standard input
************************** Dump of input data file ****************************
#(1) General system descriptors
SystemName            GRP_doping    # Descriptive name of the system
SystemLabel           GRP_doping    # Short name for naming files
%include STRUCT.fdf
%include KPT.fdf
%include BASIS.fdf
#%include TS.fdf # for transiesta calculation
#(4) DFT, Grid, SCF
XC.functional         GGA           # LDA or GGA (default = LDA)
XC.authors            PBE           # CA (Ceperley-Aldr) = PZ
                                    #    (Perdew-Zunger) - LDA - Default
                                    # PW92 (Perdew-Wang-92) - LDA
                                    # PBE (Perdew-Burke-Ernzerhof) - GGA
MeshCutoff            200.000000    Ry      # Default: 50.0 Ry ~ 0.444 Bohr
                                    #         100.0 Ry ~ 0.314 Bohr
MaxSCFIterations      500           # Default: 50
DM.MixingWeight       0.05          # Default: 0.25
DM.NumberPulay        10            # Default: 0
DM.PulayOnFile        F             # SystemLabel.P1, SystemLabel.P2
DM.Tolerance          1.d-4         # Default: 1.d-4
DM.UseSaveDM          .true.        # because of the bug
SCFMustConverge       .true.
NeglNonOverlapInt     F             # Default: F
#(5) Eigenvalue problem: order-N or diagonalization
SolutionMethod        Diagon        # or Transiesta
ElectronicTemperature 300.0 K       # Default: 300.0 K
#(6) Molecular dynamics and relaxations
#MD.TypeOfRun          CG            # Type of dynamics:
#MD.VariableCell       F
#MD.NumCGsteps         0           # 0 for single-point / 100 for gopt
#MD.MaxCGDispl         0.2 Bohr      # Default: 0.2 Bohr
#MD.MaxForceTol        0.02 eV/Ang   # Default: 0.04 eV/Ang
#MD.MaxStressTol       1.0 GPa       # Default: 1.0 GPa
# Geometry Constraints
#%block GeometryConstraints
#	position from 1 to 44
#%endblock GeometryConstraints
************************** End of input data file *****************************

reinit: -----------------------------------------------------------------------
reinit: System Name: GRP_doping
reinit: -----------------------------------------------------------------------
reinit: System Label: GRP_doping                                                  
reinit: -----------------------------------------------------------------------

initatom: Reading input for the pseudopotentials and atomic orbitals ----------
 Species number:            1  Label: N Atomic number:           7
 Species number:            2  Label: C Atomic number:           6
Ground state valence configuration:   2s02  2p03
Reading pseudopotential information in formatted form from N.psf

Valence configuration for pseudopotential generation:
2s( 2.00) rc: 1.48
2p( 3.00) rc: 1.48
3d( 0.00) rc: 1.48
4f( 0.00) rc: 1.48
Ground state valence configuration:   2s02  2p02
Reading pseudopotential information in formatted form from C.psf

Valence configuration for pseudopotential generation:
2s( 2.00) rc: 1.54
2p( 2.00) rc: 1.54
3d( 0.00) rc: 1.54
4f( 0.00) rc: 1.54
For N, standard SIESTA heuristics set lmxkb to 3
 (one more than the basis l, including polarization orbitals).
Use PS.lmax or PS.KBprojectors blocks to override.
For C, standard SIESTA heuristics set lmxkb to 3
 (one more than the basis l, including polarization orbitals).
Use PS.lmax or PS.KBprojectors blocks to override.

<basis_specs>
===============================================================================
N                    Z=   7    Mass=  14.010        Charge= 0.17977+309
Lmxo=1 Lmxkb= 3    BasisType=split      Semic=F
L=0  Nsemic=0  Cnfigmx=2
          n=1  nzeta=2  polorb=0
            splnorm:   0.15000    
               vcte:    0.0000    
               rinn:    0.0000    
                rcs:    0.0000      0.0000    
            lambdas:    1.0000      1.0000    
L=1  Nsemic=0  Cnfigmx=2
          n=1  nzeta=2  polorb=1
            splnorm:   0.15000    
               vcte:    0.0000    
               rinn:    0.0000    
                rcs:    0.0000      0.0000    
            lambdas:    1.0000      1.0000    
-------------------------------------------------------------------------------
L=0  Nkbl=1  erefs: 0.17977+309
L=1  Nkbl=1  erefs: 0.17977+309
L=2  Nkbl=1  erefs: 0.17977+309
L=3  Nkbl=1  erefs: 0.17977+309
===============================================================================
</basis_specs>

atom: Called for N                     (Z =   7)

read_vps: Pseudopotential generation method:
read_vps: ATM3      Troullier-Martins                       
Total valence charge:    5.00000

read_vps: Pseudopotential includes a core correction:
read_vps: Pseudo-core for xc-correction

xc_check: Exchange-correlation functional:
xc_check: GGA Perdew, Burke & Ernzerhof 1996
V l=0 = -2*Zval/r beyond r=  1.4606
V l=1 = -2*Zval/r beyond r=  1.4606
V l=2 = -2*Zval/r beyond r=  1.4606
V l=3 = -2*Zval/r beyond r=  1.4606
All V_l potentials equal beyond r=  1.4606
This should be close to max(r_c) in ps generation
All pots = -2*Zval/r beyond r=  1.4606

VLOCAL1: 99.0% of the norm of Vloc inside     20.347 Ry
VLOCAL1: 99.9% of the norm of Vloc inside     46.372 Ry
atom: Maximum radius for 4*pi*r*r*local-pseudopot. charge    1.76189
atom: Maximum radius for r*vlocal+2*Zval:    1.53550
GHOST: No ghost state for L =  0
GHOST: No ghost state for L =  1
GHOST: No ghost state for L =  2
GHOST: No ghost state for L =  3

KBgen: Kleinman-Bylander projectors: 
   l= 0   rc=  1.634559   el= -1.363963   Ekb=  5.296955   kbcos=  0.335621
   l= 1   rc=  1.614250   el= -0.521451   Ekb= -5.259161   kbcos= -0.433408
   l= 2   rc=  1.718383   el=  0.001991   Ekb= -1.271464   kbcos= -0.007566
   l= 3   rc=  1.761893   el=  0.003093   Ekb= -0.494769   kbcos= -0.001015

KBgen: Total number of  Kleinman-Bylander projectors:   16
atom: -------------------------------------------------------------------------

atom: SANKEY-TYPE ORBITALS:
atom: Selected multiple-zeta basis: split     

SPLIT: Orbitals with angular momentum L= 0

SPLIT: Basis orbitals for state 2s

SPLIT: PAO cut-off radius determined from an
SPLIT: energy shift=  0.007350 Ry

   izeta = 1
                 lambda =    1.000000
                     rc =    4.071465
                 energy =   -1.356470
                kinetic =    1.176977
    potential(screened) =   -2.533447
       potential(ionic) =   -8.057990

   izeta = 2
                 rmatch =    2.905100
              splitnorm =    0.150000
                 energy =   -1.158343
                kinetic =    1.813009
    potential(screened) =   -2.971352
       potential(ionic) =   -8.901931

SPLIT: Orbitals with angular momentum L= 1

SPLIT: Basis orbitals for state 2p

SPLIT: PAO cut-off radius determined from an
SPLIT: energy shift=  0.007350 Ry

   izeta = 1
                 lambda =    1.000000
                     rc =    4.972977
                 energy =   -0.513884
                kinetic =    3.441732
    potential(screened) =   -3.955616
       potential(ionic) =   -9.287901

   izeta = 2
                 rmatch =    3.054066
              splitnorm =    0.150000
                 energy =   -0.318226
                kinetic =    5.125348
    potential(screened) =   -5.443573
       potential(ionic) =  -11.380999

POLgen: Perturbative polarization orbital with L=  2

POLgen: Polarization orbital for state 2p

   izeta = 1
                     rc =    4.972977
                 energy =    1.607437
                kinetic =    3.268125
    potential(screened) =   -1.660688
       potential(ionic) =   -5.973652
atom: Total number of Sankey-type orbitals: 13

atm_pop: Valence configuration (for local Pseudopot. screening):
 2s( 2.00)                                                            
 2p( 3.00)                                                            
Vna: chval, zval:    5.00000   5.00000

Vna:  Cut-off radius for the neutral-atom potential:   4.972977
comcore: Pseudo-core radius Rcore=  1.554824

atom: _________________________________________________________________________

<basis_specs>
===============================================================================
C                    Z=   6    Mass=  12.010        Charge= 0.17977+309
Lmxo=1 Lmxkb= 3    BasisType=split      Semic=F
L=0  Nsemic=0  Cnfigmx=2
          n=1  nzeta=2  polorb=0
            splnorm:   0.15000    
               vcte:    0.0000    
               rinn:    0.0000    
                rcs:    0.0000      0.0000    
            lambdas:    1.0000      1.0000    
L=1  Nsemic=0  Cnfigmx=2
          n=1  nzeta=2  polorb=1
            splnorm:   0.15000    
               vcte:    0.0000    
               rinn:    0.0000    
                rcs:    0.0000      0.0000    
            lambdas:    1.0000      1.0000    
-------------------------------------------------------------------------------
L=0  Nkbl=1  erefs: 0.17977+309
L=1  Nkbl=1  erefs: 0.17977+309
L=2  Nkbl=1  erefs: 0.17977+309
L=3  Nkbl=1  erefs: 0.17977+309
===============================================================================
</basis_specs>

atom: Called for C                     (Z =   6)

read_vps: Pseudopotential generation method:
read_vps: ATM3      Troullier-Martins                       
Total valence charge:    4.00000

read_vps: Pseudopotential includes a core correction:
read_vps: Pseudo-core for xc-correction

xc_check: Exchange-correlation functional:
xc_check: GGA Perdew, Burke & Ernzerhof 1996
V l=0 = -2*Zval/r beyond r=  1.5227
V l=1 = -2*Zval/r beyond r=  1.5227
V l=2 = -2*Zval/r beyond r=  1.5227
V l=3 = -2*Zval/r beyond r=  1.5038
All V_l potentials equal beyond r=  1.5227
This should be close to max(r_c) in ps generation
All pots = -2*Zval/r beyond r=  1.5227

VLOCAL1: 99.0% of the norm of Vloc inside     18.722 Ry
VLOCAL1: 99.9% of the norm of Vloc inside     42.668 Ry
atom: Maximum radius for 4*pi*r*r*local-pseudopot. charge    1.83678
atom: Maximum radius for r*vlocal+2*Zval:    1.58088
GHOST: No ghost state for L =  0
GHOST: No ghost state for L =  1
GHOST: No ghost state for L =  2
GHOST: No ghost state for L =  3

KBgen: Kleinman-Bylander projectors: 
   l= 0   rc=  1.704034   el= -1.009801   Ekb=  5.335044   kbcos=  0.316824
   l= 1   rc=  1.704034   el= -0.388707   Ekb= -3.785862   kbcos= -0.366464
   l= 2   rc=  1.791422   el=  0.001971   Ekb= -0.970471   kbcos= -0.009212
   l= 3   rc=  1.859892   el=  0.003065   Ekb= -0.399525   kbcos= -0.001223

KBgen: Total number of  Kleinman-Bylander projectors:   16
atom: -------------------------------------------------------------------------

atom: SANKEY-TYPE ORBITALS:
atom: Selected multiple-zeta basis: split     

SPLIT: Orbitals with angular momentum L= 0

SPLIT: Basis orbitals for state 2s

SPLIT: PAO cut-off radius determined from an
SPLIT: energy shift=  0.007350 Ry

   izeta = 1
                 lambda =    1.000000
                     rc =    4.632753
                 energy =   -1.002270
                kinetic =    0.855760
    potential(screened) =   -1.858031
       potential(ionic) =   -5.417575

   izeta = 2
                 rmatch =    3.431921
              splitnorm =    0.150000
                 energy =   -0.867111
                kinetic =    1.300804
    potential(screened) =   -2.167915
       potential(ionic) =   -5.962684

SPLIT: Orbitals with angular momentum L= 1

SPLIT: Basis orbitals for state 2p

SPLIT: PAO cut-off radius determined from an
SPLIT: energy shift=  0.007350 Ry

   izeta = 1
                 lambda =    1.000000
                     rc =    5.658549
                 energy =   -0.381140
                kinetic =    2.399701
    potential(screened) =   -2.780841
       potential(ionic) =   -6.206085

   izeta = 2
                 rmatch =    3.653288
              splitnorm =    0.150000
                 energy =   -0.249149
                kinetic =    3.542762
    potential(screened) =   -3.791911
       potential(ionic) =   -7.581078

POLgen: Perturbative polarization orbital with L=  2

POLgen: Polarization orbital for state 2p

   izeta = 1
                     rc =    5.658549
                 energy =    1.109913
                kinetic =    2.304789
    potential(screened) =   -1.194876
       potential(ionic) =   -4.013592
atom: Total number of Sankey-type orbitals: 13

atm_pop: Valence configuration (for local Pseudopot. screening):
 2s( 2.00)                                                            
 2p( 2.00)                                                            
Vna: chval, zval:    4.00000   4.00000

Vna:  Cut-off radius for the neutral-atom potential:   5.658549
comcore: Pseudo-core radius Rcore=  1.791422

atom: _________________________________________________________________________

prinput: Basis input ----------------------------------------------------------

PAO.BasisType split     

%block ChemicalSpeciesLabel
    1    7 N                       # Species index, atomic number, species label
    2    6 C                       # Species index, atomic number, species label
%endblock ChemicalSpeciesLabel

%block PAO.Basis                 # Define Basis set
N                     2                    # Species label, number of l-shells
 n=2   0   2                         # n, l, Nzeta 
   4.071      2.905   
   1.000      1.000   
 n=2   1   2 P   1                   # n, l, Nzeta, Polarization, NzetaPol
   4.973      3.054   
   1.000      1.000   
C                     2                    # Species label, number of l-shells
 n=2   0   2                         # n, l, Nzeta 
   4.633      3.432   
   1.000      1.000   
 n=2   1   2 P   1                   # n, l, Nzeta, Polarization, NzetaPol
   5.659      3.653   
   1.000      1.000   
%endblock PAO.Basis

prinput: ----------------------------------------------------------------------

coor:   Atomic-coordinates input format  =     Cartesian coordinates
coor:                                          (in Angstroms)

siesta: Atomic coordinates (Bohr) and species
siesta:      2.23554   1.32097   0.00000  1        1
siesta:     32.50291  13.41944   0.00000  1        2
siesta:     34.83104  14.76308   0.00000  1        3
siesta:     27.84639   5.35379   0.00000  1        4
siesta:     30.17453   6.69743   0.00000  1        5
siesta:     27.84714  21.48508   0.00000  1        6
siesta:     30.17527  22.82873   0.00000  1        7
siesta:     11.54782   1.32097   0.00000  1        8
siesta:     20.86199   1.32097   0.00000  1        9
siesta:      9.21994   5.35379   0.00000  1       10
siesta:     11.54807   6.69743   0.00000  1       11
siesta:     18.53411   5.35379   0.00000  1       12
siesta:     20.86224   6.69743   0.00000  1       13
siesta:      6.89205   9.38661   0.00000  1       14
siesta:     16.20434   9.38661   0.00000  1       15
siesta:     13.87645  13.41944   0.00000  1       16
siesta:     16.20459  14.76308   0.00000  1       17
siesta:     11.54857  17.45226   0.00000  1       18
siesta:     18.53486  21.48508   0.00000  1       19
siesta:     20.86299  22.82873   0.00000  1       20
siesta:     25.51851   9.38661   0.00000  1       21
siesta:     23.19063  13.41944   0.00000  1       22
siesta:     25.51876  14.76308   0.00000  1       23
siesta:     20.86274  17.45226   0.00000  1       24
siesta:     30.17503  17.45226   0.00000  1       25
siesta:     37.16131  21.48508   0.00000  1       26
siesta:     39.48945  22.82873   0.00000  1       27
siesta:      4.56367   2.66461   0.00000  2       28
siesta:     32.50328  21.48508   0.00000  2       29
siesta:     34.83141  22.82873   0.00000  2       30
siesta:     34.83116  17.45226   0.00000  2       31
siesta:     37.15930  18.79590   0.00000  2       32
siesta:     30.17465   9.38661   0.00000  2       33
siesta:     32.50278  10.73026   0.00000  2       34
siesta:      6.89168   1.32097   0.00000  2       35
siesta:      9.21981   2.66461   0.00000  2       36
siesta:     13.87595   2.66461   0.00000  2       37
siesta:     16.20396   1.32097   0.00000  2       38
siesta:     18.53210   2.66461   0.00000  2       39
siesta:     23.19013   2.66461   0.00000  2       40
siesta:     25.51813   1.32097   0.00000  2       41
siesta:     27.84627   2.66461   0.00000  2       42
siesta:      4.56380   5.35379   0.00000  2       43
siesta:      6.89193   6.69743   0.00000  2       44
siesta:     13.87608   5.35379   0.00000  2       45
siesta:     16.20421   6.69743   0.00000  2       46
siesta:     23.19025   5.35379   0.00000  2       47
siesta:     25.51838   6.69743   0.00000  2       48
siesta:      9.22019  10.73026   0.00000  2       49
siesta:     11.54820   9.38661   0.00000  2       50
siesta:     13.87633  10.73026   0.00000  2       51
siesta:     18.53247  10.73026   0.00000  2       52
siesta:     20.86237   9.38661   0.00000  2       53
siesta:     23.19050  10.73026   0.00000  2       54
siesta:      9.22031  13.41944   0.00000  2       55
siesta:     11.54845  14.76308   0.00000  2       56
siesta:     18.53448  13.41944   0.00000  2       57
siesta:     20.86262  14.76308   0.00000  2       58
siesta:     13.87670  18.79590   0.00000  2       59
siesta:     16.20471  17.45226   0.00000  2       60
siesta:     18.53284  18.79590   0.00000  2       61
siesta:     13.87683  21.48508   0.00000  2       62
siesta:     16.20496  22.82873   0.00000  2       63
siesta:     27.84664  10.73026   0.00000  2       64
siesta:     23.19088  18.79590   0.00000  2       65
siesta:     27.84677  13.41944   0.00000  2       66
siesta:     30.17490  14.76308   0.00000  2       67
siesta:     25.51888  17.45226   0.00000  2       68
siesta:     27.84702  18.79590   0.00000  2       69
siesta:     23.19100  21.48508   0.00000  2       70
siesta:     25.51913  22.82873   0.00000  2       71
siesta:     32.50316  18.79590   0.00000  2       72

siesta: System type = slab      

initatomlists: Number of atoms, orbitals, and projectors:     72   936  1152

siesta: ******************** Simulation parameters ****************************
siesta:
siesta: The following are some of the parameters of the simulation.
siesta: A complete list of the parameters used, including default values,
siesta: can be found in file out.fdf
siesta:
redata: Non-Collinear-spin run           =     F
redata: SpinPolarized (Up/Down) run      =     F
redata: Number of spin components        =     1
redata: Long output                      =     F
redata: Number of Atomic Species         =        2
redata: Charge density info will appear in .RHO file
redata: Write Mulliken Pop.              =     NO
redata: Mesh Cutoff                      =   200.0000  Ry
redata: Net charge of the system         =     0.0000 |e|
redata: Max. number of SCF Iter          =      500
redata: SCF convergence failure will abort job
redata: Performing Pulay mixing using    =    10 iterations
redata: Mix DM in first SCF step ?       =     F
redata: Write Pulay info on disk?        =     F
redata: Discard 1st Pulay DM after  kick =     F
redata: New DM Mixing Weight             =     0.0500
redata: New DM Occupancy tolerance       = 0.000000000001
redata: No kicks to SCF
redata: DM Mixing Weight for Kicks       =     0.5000
redata: DM Tolerance for SCF             =     0.000100
redata: Require Energy convergence for SCF =     F
redata: DM Energy tolerance for SCF      =     0.000100 eV
redata: Require Harris convergence for SCF =     F
redata: DM Harris energy tolerance for SCF =     0.000100 eV
redata: Using Saved Data (generic)   =     F
redata: Use continuation files for DM    =     T
redata: Neglect nonoverlap interactions  =     F
redata: Method of Calculation            =     Diagonalization
redata: Divide and Conquer               =     T
redata: Electronic Temperature           =     0.0019  Ry
redata: Fix the spin of the system       =     F
redata: Dynamics option                  =     Verlet MD run
redata: Initial MD time step             =        1
redata:   Final MD time step             =        1
redata: Length of MD time step           =     1.0000  fs
redata: Initial Temperature of MD run    =     0.0000  K
redata: Perform a MD quench              =     F
redata: ***********************************************************************
Total number of electrons:   315.000000
Total ionic charge:   315.000000

* ProcessorY, Blocksize:    2  24

k-point displ. along   1 input, could be:     0.00    0.50
k-point displ. along   2 input, could be:     0.00    0.50
 Kpoints in:          364 . Kpoints trimmed:          352

siesta: k-grid: Number of k-points =   352
siesta: k-grid: Cutoff (effective) =     5.000 Ang
siesta: k-grid: Supercell and displacements
siesta: k-grid:   26   0   0      0.000
siesta: k-grid:    0  26   0      0.000
siesta: k-grid:    0   0   1      0.000
Naive supercell factors:     2    2    2

superc: Internal auxiliary supercell:     2 x     2 x     2  =       8
superc: Number of atoms, orbitals, and projectors:    576   7488   9216

* Maximum dynamic memory allocated =     6 MB

siesta:                 ==============================
                            Begin MD step =      1
                        ==============================

superc: Internal auxiliary supercell:     2 x     2 x     2  =       8
superc: Number of atoms, orbitals, and projectors:    576   7488   9216

outcell: Unit cell vectors (Ang):
       14.785000    0.000000    0.000000
        7.393000   12.805052    0.000000
        0.000000    0.000000   10.000000

outcell: Cell vector modules (Ang)   :   14.785000   14.786000   10.000000
outcell: Cell angles (23,13,12) (deg):     90.0000     90.0000     60.0000
outcell: Cell volume (Ang**3)        :   1893.2269
New_DM. Step:     1
Initializing Density Matrix...

InitMesh: MESH =   120 x   120 x    90 =     1296000
InitMesh: Mesh cutoff (required, used) =   200.000   223.865 Ry

* Maximum dynamic memory allocated =   174 MB

stepf: Fermi-Dirac step function

siesta: Program's energy decomposition (eV):
siesta: Ebs     =     -4927.999416
siesta: Eions   =     22743.175864
siesta: Ena     =      4240.731435
siesta: Ekin    =      8644.090471
siesta: Enl     =      -529.723472
siesta: DEna    =        -0.000012
siesta: DUscf   =         0.000000
siesta: DUext   =         0.000000
siesta: Exc     =     -4604.885440
siesta: eta*DQ  =         0.000000
siesta: Emadel  =         0.000000
siesta: Emeta   =         0.000000
siesta: Emolmec =         0.000000
siesta: Ekinion =         0.000000
siesta: Eharris =    -14843.925525
siesta: Etot    =    -14992.962882
siesta: FreeEng =    -14992.962882

siesta: iscf   Eharris(eV)      E_KS(eV)   FreeEng(eV)   dDmax  Ef(eV)
siesta:    1   -14843.9255   -14992.9629   -14992.9629  1.9503 -3.4515
timer: Routine,Calls,Time,% = IterSCF        1   10527.885  99.88
elaps: Routine,Calls,Wall,% = IterSCF        1    1405.052  99.90
siesta:    2   -14848.8539   -14822.7883   -14822.8133  0.2137 -2.1826
siesta:    3   -14841.3514   -14836.9656   -14836.9970  0.1691 -2.2534
siesta:    4   -14834.1860   -14833.4052   -14833.4298  0.1086 -2.3011
siesta:    5   -14832.4882   -14830.9759   -14830.9994  0.0558 -2.3750
siesta:    6   -14832.2388   -14831.1464   -14831.1705  0.0338 -2.4455
siesta:    7   -14832.1635   -14830.6105   -14830.6346  0.0063 -2.5676
siesta:    8   -14832.1458   -14831.2676   -14831.2915  0.0066 -2.5649
siesta:    9   -14832.1465   -14831.3640   -14831.3881  0.0054 -2.5626
siesta:   10   -14832.1438   -14831.8262   -14831.8503  0.0031 -2.5613
siesta:   11   -14832.1435   -14831.9981   -14832.0222  0.0006 -2.5605
siesta:   12   -14832.1434   -14832.0098   -14832.0339  0.0005 -2.5602
siesta:   13   -14832.1433   -14832.0812   -14832.1052  0.0003 -2.5599
siesta:   14   -14832.1433   -14832.1124   -14832.1365  0.0001 -2.5596
siesta:   15   -14832.1433   -14832.1253   -14832.1494  0.0001 -2.5595

siesta: E_KS(eV) =           -14832.1356

siesta: E_KS - E_eggbox =    -14832.1356

siesta: Atomic forces (eV/Ang):
----------------------------------------
   Tot    0.512635   -0.125977    0.000000
----------------------------------------
   Max    1.037606
   Res    0.423434    sqrt( Sum f_i^2 / 3N )
----------------------------------------
   Max    1.037606    constrained

Stress-tensor-Voigt (kbar):       61.34       59.12        0.36        1.80        0.00        0.00
(Free)E + p*V (eV/cell)   -14879.7460
Target enthalpy (eV/cell)   -14832.1596

siesta: Stress tensor (static) (eV/Ang**3):
         0.038284    0.001126    0.000000
         0.001126    0.036899    0.000000
         0.000000    0.000000    0.000222

siesta: Pressure (static):        -40.27125505  kBar

siesta: Stress tensor (total) (eV/Ang**3):
         0.038284    0.001126    0.000000
         0.001126    0.036899    0.000000
         0.000000    0.000000    0.000222

siesta: Pressure (total):        -40.27125505  kBar

siesta: Temp_ion =       0.000 K

* Maximum dynamic memory allocated =   189 MB

siesta: Program's energy decomposition (eV):
siesta: Ebs     =     -4664.824313
siesta: Eions   =     22743.175864
siesta: Ena     =      4240.731435
siesta: Ekin    =     10095.225975
siesta: Enl     =     -1595.893609
siesta: DEna    =      -174.648929
siesta: DUscf   =        21.405654
siesta: DUext   =         0.000000
siesta: Exc     =     -4675.780230
siesta: eta*DQ  =         0.000000
siesta: Emadel  =         0.000000
siesta: Emeta   =         0.000000
siesta: Emolmec =         0.000000
siesta: Ekinion =         0.000000
siesta: Eharris =    -14832.143320
siesta: Etot    =    -14832.135568
siesta: FreeEng =    -14832.159640

siesta: Final energy (eV):
siesta:  Band Struct. =   -4664.824313
siesta:       Kinetic =   10095.225975
siesta:       Hartree =   28284.872776
siesta:    Ext. field =       0.000000
siesta:   Exch.-corr. =   -4675.780230
siesta:  Ion-electron =  -66046.783536
siesta:       Ion-ion =   17510.329448
siesta:       Ekinion =       0.000000
siesta:         Total =  -14832.135568

siesta: Atomic forces (eV/Ang):
siesta:      1    0.665636    0.344803    0.000000
siesta:      2    0.559712    0.294551    0.000000
siesta:      3    0.209701    0.144646    0.000000
siesta:      4    0.557078    0.291389    0.000000
siesta:      5    0.210060    0.146574    0.000000
siesta:      6    0.557002    0.296845    0.000000
siesta:      7    0.195980    0.166449    0.000000
siesta:      8    0.687068    0.339245    0.000000
siesta:      9    0.653117    0.343757    0.000000
siesta:     10    0.556428    0.291916    0.000000
siesta:     11    0.199456    0.150290    0.000000
siesta:     12    0.522353    0.302236    0.000000
siesta:     13    0.196549    0.147069    0.000000
siesta:     14    0.674463    0.359885    0.000000
siesta:     15    0.689192    0.360535    0.000000
siesta:     16    0.559316    0.293218    0.000000
siesta:     17    0.222960    0.145531    0.000000
siesta:     18    0.673022    0.355968    0.000000
siesta:     19    0.521584    0.301649    0.000000
siesta:     20    0.193055    0.164579    0.000000
siesta:     21    0.685749    0.356261    0.000000
siesta:     22    0.556088    0.293315    0.000000
siesta:     23    0.199048    0.149728    0.000000
siesta:     24    0.659746    0.361250    0.000000
siesta:     25    0.684835    0.357652    0.000000
siesta:     26    0.518814    0.301681    0.000000
siesta:     27    0.180488    0.169263    0.000000
siesta:     28   -1.035349   -0.593907    0.000000
siesta:     29   -0.166783    0.087860    0.000000
siesta:     30   -0.531510    0.773615    0.000000
siesta:     31    0.007337   -0.213476    0.000000
siesta:     32    0.398416   -0.856853    0.000000
siesta:     33    0.006081   -0.218825    0.000000
siesta:     34    0.388190   -0.856868    0.000000
siesta:     35    0.006824   -0.234055    0.000000
siesta:     36    0.378452   -0.857164    0.000000
siesta:     37   -1.034135   -0.589108    0.000000
siesta:     38    0.014509   -0.231421    0.000000
siesta:     39    0.412096   -0.861079    0.000000
siesta:     40   -1.037606   -0.593120    0.000000
siesta:     41    0.009939   -0.233628    0.000000
siesta:     42    0.389970   -0.857261    0.000000
siesta:     43   -0.181012    0.085996    0.000000
siesta:     44   -0.563844    0.762691    0.000000
siesta:     45   -0.166597    0.079821    0.000000
siesta:     46   -0.538091    0.755537    0.000000
siesta:     47   -0.170785    0.082147    0.000000
siesta:     48   -0.561365    0.760836    0.000000
siesta:     49   -1.033956   -0.586630    0.000000
siesta:     50    0.003561   -0.216684    0.000000
siesta:     51    0.377999   -0.853070    0.000000
siesta:     52   -0.995454   -0.597504    0.000000
siesta:     53   -0.024706   -0.207570    0.000000
siesta:     54    0.371758   -0.853569    0.000000
siesta:     55   -0.182053    0.085065    0.000000
siesta:     56   -0.562194    0.763389    0.000000
siesta:     57   -0.202855    0.087121    0.000000
siesta:     58   -0.565495    0.761836    0.000000
siesta:     59   -1.033628   -0.585083    0.000000
siesta:     60    0.010356   -0.215830    0.000000
siesta:     61    0.410148   -0.860155    0.000000
siesta:     62   -0.154832    0.083464    0.000000
siesta:     63   -0.529463    0.771214    0.000000
siesta:     64   -1.032768   -0.586126    0.000000
siesta:     65   -1.036215   -0.586553    0.000000
siesta:     66   -0.171801    0.080916    0.000000
siesta:     67   -0.561378    0.761611    0.000000
siesta:     68    0.003349   -0.216180    0.000000
siesta:     69    0.377537   -0.852900    0.000000
siesta:     70   -0.171919    0.084899    0.000000
siesta:     71   -0.564101    0.777978    0.000000
siesta:     72   -1.032491   -0.587639    0.000000
siesta: ----------------------------------------
siesta:    Tot    0.512635   -0.125977    0.000000

siesta: Stress tensor (static) (eV/Ang**3):
siesta:     0.038284    0.001126    0.000000
siesta:     0.001126    0.036899    0.000000
siesta:     0.000000    0.000000    0.000222

siesta: Cell volume =       1893.226895 Ang**3

siesta: Pressure (static):
siesta:                Solid            Molecule  Units
siesta:          -0.00027375         -0.00034300  Ry/Bohr**3
siesta:          -0.02513507         -0.03149296  eV/Ang**3
siesta:         -40.27125505        -50.45783502  kBar
(Free)E+ p_basis*V_orbitals  =      -14805.282040
(Free)Eharris+ p_basis*V_orbitals  =      -14805.300020

siesta: Electric dipole (a.u.)  =    0.000000    0.000000    0.000000
siesta: Electric dipole (Debye) =    0.000000    0.000000    0.000000

* Maximum dynamic memory allocated : Node    0 =   189 MB
* Maximum dynamic memory allocated : Node    1 =    70 MB
* Maximum dynamic memory allocated : Node    2 =    72 MB
* Maximum dynamic memory allocated : Node    3 =   179 MB
* Maximum dynamic memory allocated : Node    4 =   189 MB
* Maximum dynamic memory allocated : Node    5 =    70 MB
* Maximum dynamic memory allocated : Node    6 =    72 MB
* Maximum dynamic memory allocated : Node    7 =   175 MB

* Maximum memory occured during matrixMtoO                    

timer: CPU execution times:
timer:  Routine       Calls   Time/call    Tot.time        %
timer:  siesta            1  155777.150  155777.150   100.00
timer:  Setup             1       2.913       2.913     0.00
timer:  bands             1       0.004       0.004     0.00
timer:  writewave         1       0.042       0.042     0.00
timer:  KSV_init          1       0.000       0.000     0.00
timer:  IterMD            1  155763.563  155763.563    99.99
timer:  hsparse           1       0.248       0.248     0.00
timer:  overlap           1       7.728       7.728     0.00
timer:  IterSCF          15   10374.240  155613.595    99.90
timer:  kinefsm           2       3.954       7.908     0.01
timer:  nlefsm            2      17.582      35.164     0.02
timer:  DHSCF            16      76.732    1227.719     0.79
timer:  DHSCF1            1       0.769       0.769     0.00
timer:  DHSCF2            1      34.955      34.955     0.02
timer:  REORD           130       0.009       1.219     0.00
timer:  POISON           17       2.463      41.878     0.03
timer:  DHSCF3           16      72.689    1163.020     0.75
timer:  rhoofd           16      13.922     222.754     0.14
timer:  cellXC           16       4.287      68.596     0.04
timer:  vmat             16      35.611     569.768     0.37
timer:  MolMec            2       0.000       0.000     0.00
timer:  diagon           15   10294.321  154414.809    99.13
timer:  c-eigval       5280      12.073   63746.398    40.92
timer:  c-buildHS      5280       0.080     424.214     0.27
timer:  cdiag         10560      12.459  131567.211    84.46
timer:  cdiag1        10560       0.810    8555.363     5.49
timer:  cdiag2        10560       3.502   36976.310    23.74
timer:  cdiag3        10560       7.337   77479.419    49.74
timer:  cdiag4        10560       0.342    3612.727     2.32
timer:  c-eigvec       5280      12.990   68586.416    44.03
timer:  c-buildD       5280       4.175   22043.034    14.15
timer:  DHSCF4            1      28.154      28.154     0.02
timer:  dfscf             1      26.371      26.371     0.02
timer:  overfsm           1       0.365       0.365     0.00
timer:  optical           1       9.615       9.615     0.01
  

elaps: ELAPSED times:
elaps:  Routine       Calls   Time/call    Tot.time        %
elaps:  siesta            1   20786.659   20786.659   100.00
elaps:  Setup             1       0.385       0.385     0.00
elaps:  bands             1       0.001       0.001     0.00
elaps:  writewave         1       0.002       0.002     0.00
elaps:  KSV_init          1       0.000       0.000     0.00
elaps:  IterMD            1   20784.847   20784.847    99.99
elaps:  hsparse           1       0.031       0.031     0.00
elaps:  overlap           1       0.965       0.965     0.00
elaps:  IterSCF          15    1384.337   20765.048    99.90
elaps:  kinefsm           2       0.497       0.994     0.00
elaps:  nlefsm            2       2.348       4.695     0.02
elaps:  DHSCF            16      10.432     166.913     0.80
elaps:  DHSCF1            1       0.100       0.100     0.00
elaps:  DHSCF2            1       4.652       4.652     0.02
elaps:  REORD           130       0.001       0.168     0.00
elaps:  POISON           17       0.326       5.549     0.03
elaps:  DHSCF3           16       9.689     155.018     0.75
elaps:  rhoofd           16       3.225      51.593     0.25
elaps:  cellXC           16       0.571       9.139     0.04
elaps:  vmat             16       4.742      75.878     0.37
elaps:  MolMec            2       0.000       0.000     0.00
elaps:  diagon           15    1373.678   20605.171    99.13
elaps:  c-eigval       5280       1.611    8506.336    40.92
elaps:  c-buildHS      5280       0.012      65.859     0.32
elaps:  cdiag         10560       1.658   17509.892    84.24
elaps:  cdiag1        10560       0.106    1124.509     5.41
elaps:  cdiag2        10560       0.467    4934.072    23.74
elaps:  cdiag3        10560       0.981   10359.769    49.84
elaps:  cdiag4        10560       0.046     485.228     2.33
elaps:  c-eigvec       5280       1.728    9126.114    43.90
elaps:  c-buildD       5280       0.562    2966.522    14.27
elaps:  DHSCF4            1       6.988       6.988     0.03
elaps:  dfscf             1       6.627       6.627     0.03
elaps:  overfsm           1       0.047       0.047     0.00
elaps:  optical           1       0.000       0.000     0.00
  
>> End of run:   6-DEC-2015   7:06:17
