Siesta Version:                                        siesta-3.2-pl-3
Architecture  : x86_64-unknown-linux-gnu--unknown
Compiler flags: mpiifort -g -O2 -fPIC -xSSE4.1 -fp-model source -shared-intel 
PARALLEL version

* Running on    8 nodes in parallel
>> Start of run:   4-DEC-2015  19:05:45

                           ***********************       
                           *  WELCOME TO SIESTA  *       
                           ***********************       

reinit: Reading from standard input
************************** Dump of input data file ****************************
#(1) General system descriptors
SystemName            GRP_doping    # Descriptive name of the system
SystemLabel           GRP_doping    # Short name for naming files
%include STRUCT.fdf
%include KPT.fdf
%include BASIS.fdf
#%include TS.fdf # for transiesta calculation
#(4) DFT, Grid, SCF
XC.functional         GGA           # LDA or GGA (default = LDA)
XC.authors            PBE           # CA (Ceperley-Aldr) = PZ
                                    #    (Perdew-Zunger) - LDA - Default
                                    # PW92 (Perdew-Wang-92) - LDA
                                    # PBE (Perdew-Burke-Ernzerhof) - GGA
MeshCutoff            200.000000    Ry      # Default: 50.0 Ry ~ 0.444 Bohr
                                    #         100.0 Ry ~ 0.314 Bohr
MaxSCFIterations      500           # Default: 50
DM.MixingWeight       0.05          # Default: 0.25
DM.NumberPulay        10            # Default: 0
DM.PulayOnFile        F             # SystemLabel.P1, SystemLabel.P2
DM.Tolerance          1.d-4         # Default: 1.d-4
DM.UseSaveDM          .true.        # because of the bug
SCFMustConverge       .true.
NeglNonOverlapInt     F             # Default: F
#(5) Eigenvalue problem: order-N or diagonalization
SolutionMethod        Diagon        # or Transiesta
ElectronicTemperature 300.0 K       # Default: 300.0 K
#(6) Molecular dynamics and relaxations
#MD.TypeOfRun          CG            # Type of dynamics:
#MD.VariableCell       F
#MD.NumCGsteps         0           # 0 for single-point / 100 for gopt
#MD.MaxCGDispl         0.2 Bohr      # Default: 0.2 Bohr
#MD.MaxForceTol        0.02 eV/Ang   # Default: 0.04 eV/Ang
#MD.MaxStressTol       1.0 GPa       # Default: 1.0 GPa
# Geometry Constraints
#%block GeometryConstraints
#	position from 1 to 44
#%endblock GeometryConstraints
************************** End of input data file *****************************

reinit: -----------------------------------------------------------------------
reinit: System Name: GRP_doping
reinit: -----------------------------------------------------------------------
reinit: System Label: GRP_doping                                                  
reinit: -----------------------------------------------------------------------

initatom: Reading input for the pseudopotentials and atomic orbitals ----------
 Species number:            1  Label: B Atomic number:           5
 Species number:            2  Label: C Atomic number:           6
Ground state valence configuration:   2s02  2p01
Reading pseudopotential information in formatted form from B.psf

Valence configuration for pseudopotential generation:
2s( 2.00) rc: 1.74
2p( 1.00) rc: 1.74
3d( 0.00) rc: 1.74
4f( 0.00) rc: 1.74
Ground state valence configuration:   2s02  2p02
Reading pseudopotential information in formatted form from C.psf

Valence configuration for pseudopotential generation:
2s( 2.00) rc: 1.54
2p( 2.00) rc: 1.54
3d( 0.00) rc: 1.54
4f( 0.00) rc: 1.54
For B, standard SIESTA heuristics set lmxkb to 3
 (one more than the basis l, including polarization orbitals).
Use PS.lmax or PS.KBprojectors blocks to override.
For C, standard SIESTA heuristics set lmxkb to 3
 (one more than the basis l, including polarization orbitals).
Use PS.lmax or PS.KBprojectors blocks to override.

<basis_specs>
===============================================================================
B                    Z=   5    Mass=  10.810        Charge= 0.17977+309
Lmxo=1 Lmxkb= 3    BasisType=split      Semic=F
L=0  Nsemic=0  Cnfigmx=2
          n=1  nzeta=2  polorb=0
            splnorm:   0.15000    
               vcte:    0.0000    
               rinn:    0.0000    
                rcs:    0.0000      0.0000    
            lambdas:    1.0000      1.0000    
L=1  Nsemic=0  Cnfigmx=2
          n=1  nzeta=2  polorb=1
            splnorm:   0.15000    
               vcte:    0.0000    
               rinn:    0.0000    
                rcs:    0.0000      0.0000    
            lambdas:    1.0000      1.0000    
-------------------------------------------------------------------------------
L=0  Nkbl=1  erefs: 0.17977+309
L=1  Nkbl=1  erefs: 0.17977+309
L=2  Nkbl=1  erefs: 0.17977+309
L=3  Nkbl=1  erefs: 0.17977+309
===============================================================================
</basis_specs>

atom: Called for B                     (Z =   5)

read_vps: Pseudopotential generation method:
read_vps: ATM3      Troullier-Martins                       
Total valence charge:    3.00000

read_vps: Pseudopotential includes a core correction:
read_vps: Pseudo-core for xc-correction

xc_check: Exchange-correlation functional:
xc_check: GGA Perdew, Burke & Ernzerhof 1996
V l=0 = -2*Zval/r beyond r=  1.7165
V l=1 = -2*Zval/r beyond r=  1.7165
V l=2 = -2*Zval/r beyond r=  1.7165
V l=3 = -2*Zval/r beyond r=  1.6951
All V_l potentials equal beyond r=  1.7165
This should be close to max(r_c) in ps generation
All pots = -2*Zval/r beyond r=  1.7165

VLOCAL1: 99.0% of the norm of Vloc inside     14.733 Ry
VLOCAL1: 99.9% of the norm of Vloc inside     33.577 Ry
atom: Maximum radius for 4*pi*r*r*local-pseudopot. charge    2.04484
atom: Maximum radius for r*vlocal+2*Zval:    1.75994
GHOST: No ghost state for L =  0
GHOST: No ghost state for L =  1
GHOST: No ghost state for L =  2
GHOST: No ghost state for L =  3

KBgen: Kleinman-Bylander projectors: 
   l= 0   rc=  1.897051   el= -0.693730   Ekb=  4.595746   kbcos=  0.286105
   l= 1   rc=  1.920920   el= -0.265236   Ekb= -2.350715   kbcos= -0.315747
   l= 2   rc=  2.044840   el=  0.002055   Ekb= -0.690767   kbcos= -0.013822
   l= 3   rc=  2.149707   el=  0.003188   Ekb= -0.315358   kbcos= -0.002055

KBgen: Total number of  Kleinman-Bylander projectors:   16
atom: -------------------------------------------------------------------------

atom: SANKEY-TYPE ORBITALS:
atom: Selected multiple-zeta basis: split     

SPLIT: Orbitals with angular momentum L= 0

SPLIT: Basis orbitals for state 2s

SPLIT: PAO cut-off radius determined from an
SPLIT: energy shift=  0.007350 Ry

   izeta = 1
                 lambda =    1.000000
                     rc =    5.422032
                 energy =   -0.686029
                kinetic =    0.576707
    potential(screened) =   -1.262736
       potential(ionic) =   -3.271094

   izeta = 2
                 rmatch =    4.222573
              splitnorm =    0.150000
                 energy =   -0.602132
                kinetic =    0.858975
    potential(screened) =   -1.461107
       potential(ionic) =   -3.582536

SPLIT: Orbitals with angular momentum L= 1

SPLIT: Basis orbitals for state 2p

SPLIT: PAO cut-off radius determined from an
SPLIT: energy shift=  0.007350 Ry

   izeta = 1
                 lambda =    1.000000
                     rc =    6.790259
                 energy =   -0.258578
                kinetic =    1.481412
    potential(screened) =   -1.739989
       potential(ionic) =   -3.657461

   izeta = 2
                 rmatch =    4.608740
              splitnorm =    0.150000
                 energy =   -0.173757
                kinetic =    2.186690
    potential(screened) =   -2.360447
       potential(ionic) =   -4.464260

POLgen: Perturbative polarization orbital with L=  2

POLgen: Polarization orbital for state 2p

   izeta = 1
                     rc =    6.790259
                 energy =    0.684082
                kinetic =    1.471481
    potential(screened) =   -0.787399
       potential(ionic) =   -2.406985
atom: Total number of Sankey-type orbitals: 13

atm_pop: Valence configuration (for local Pseudopot. screening):
 2s( 2.00)                                                            
 2p( 1.00)                                                            
Vna: chval, zval:    3.00000   3.00000

Vna:  Cut-off radius for the neutral-atom potential:   6.790259
comcore: Pseudo-core radius Rcore=  2.122997

atom: _________________________________________________________________________

<basis_specs>
===============================================================================
C                    Z=   6    Mass=  12.010        Charge= 0.17977+309
Lmxo=1 Lmxkb= 3    BasisType=split      Semic=F
L=0  Nsemic=0  Cnfigmx=2
          n=1  nzeta=2  polorb=0
            splnorm:   0.15000    
               vcte:    0.0000    
               rinn:    0.0000    
                rcs:    0.0000      0.0000    
            lambdas:    1.0000      1.0000    
L=1  Nsemic=0  Cnfigmx=2
          n=1  nzeta=2  polorb=1
            splnorm:   0.15000    
               vcte:    0.0000    
               rinn:    0.0000    
                rcs:    0.0000      0.0000    
            lambdas:    1.0000      1.0000    
-------------------------------------------------------------------------------
L=0  Nkbl=1  erefs: 0.17977+309
L=1  Nkbl=1  erefs: 0.17977+309
L=2  Nkbl=1  erefs: 0.17977+309
L=3  Nkbl=1  erefs: 0.17977+309
===============================================================================
</basis_specs>

atom: Called for C                     (Z =   6)

read_vps: Pseudopotential generation method:
read_vps: ATM3      Troullier-Martins                       
Total valence charge:    4.00000

read_vps: Pseudopotential includes a core correction:
read_vps: Pseudo-core for xc-correction

xc_check: Exchange-correlation functional:
xc_check: GGA Perdew, Burke & Ernzerhof 1996
V l=0 = -2*Zval/r beyond r=  1.5227
V l=1 = -2*Zval/r beyond r=  1.5227
V l=2 = -2*Zval/r beyond r=  1.5227
V l=3 = -2*Zval/r beyond r=  1.5038
All V_l potentials equal beyond r=  1.5227
This should be close to max(r_c) in ps generation
All pots = -2*Zval/r beyond r=  1.5227

VLOCAL1: 99.0% of the norm of Vloc inside     18.722 Ry
VLOCAL1: 99.9% of the norm of Vloc inside     42.668 Ry
atom: Maximum radius for 4*pi*r*r*local-pseudopot. charge    1.83678
atom: Maximum radius for r*vlocal+2*Zval:    1.58088
GHOST: No ghost state for L =  0
GHOST: No ghost state for L =  1
GHOST: No ghost state for L =  2
GHOST: No ghost state for L =  3

KBgen: Kleinman-Bylander projectors: 
   l= 0   rc=  1.704034   el= -1.009801   Ekb=  5.335044   kbcos=  0.316824
   l= 1   rc=  1.704034   el= -0.388707   Ekb= -3.785862   kbcos= -0.366464
   l= 2   rc=  1.791422   el=  0.001971   Ekb= -0.970471   kbcos= -0.009212
   l= 3   rc=  1.859892   el=  0.003065   Ekb= -0.399525   kbcos= -0.001223

KBgen: Total number of  Kleinman-Bylander projectors:   16
atom: -------------------------------------------------------------------------

atom: SANKEY-TYPE ORBITALS:
atom: Selected multiple-zeta basis: split     

SPLIT: Orbitals with angular momentum L= 0

SPLIT: Basis orbitals for state 2s

SPLIT: PAO cut-off radius determined from an
SPLIT: energy shift=  0.007350 Ry

   izeta = 1
                 lambda =    1.000000
                     rc =    4.632753
                 energy =   -1.002270
                kinetic =    0.855760
    potential(screened) =   -1.858031
       potential(ionic) =   -5.417575

   izeta = 2
                 rmatch =    3.431921
              splitnorm =    0.150000
                 energy =   -0.867111
                kinetic =    1.300804
    potential(screened) =   -2.167915
       potential(ionic) =   -5.962684

SPLIT: Orbitals with angular momentum L= 1

SPLIT: Basis orbitals for state 2p

SPLIT: PAO cut-off radius determined from an
SPLIT: energy shift=  0.007350 Ry

   izeta = 1
                 lambda =    1.000000
                     rc =    5.658549
                 energy =   -0.381140
                kinetic =    2.399701
    potential(screened) =   -2.780841
       potential(ionic) =   -6.206085

   izeta = 2
                 rmatch =    3.653288
              splitnorm =    0.150000
                 energy =   -0.249149
                kinetic =    3.542762
    potential(screened) =   -3.791911
       potential(ionic) =   -7.581078

POLgen: Perturbative polarization orbital with L=  2

POLgen: Polarization orbital for state 2p

   izeta = 1
                     rc =    5.658549
                 energy =    1.109913
                kinetic =    2.304789
    potential(screened) =   -1.194876
       potential(ionic) =   -4.013592
atom: Total number of Sankey-type orbitals: 13

atm_pop: Valence configuration (for local Pseudopot. screening):
 2s( 2.00)                                                            
 2p( 2.00)                                                            
Vna: chval, zval:    4.00000   4.00000

Vna:  Cut-off radius for the neutral-atom potential:   5.658549
comcore: Pseudo-core radius Rcore=  1.791422

atom: _________________________________________________________________________

prinput: Basis input ----------------------------------------------------------

PAO.BasisType split     

%block ChemicalSpeciesLabel
    1    5 B                       # Species index, atomic number, species label
    2    6 C                       # Species index, atomic number, species label
%endblock ChemicalSpeciesLabel

%block PAO.Basis                 # Define Basis set
B                     2                    # Species label, number of l-shells
 n=2   0   2                         # n, l, Nzeta 
   5.422      4.223   
   1.000      1.000   
 n=2   1   2 P   1                   # n, l, Nzeta, Polarization, NzetaPol
   6.790      4.609   
   1.000      1.000   
C                     2                    # Species label, number of l-shells
 n=2   0   2                         # n, l, Nzeta 
   4.633      3.432   
   1.000      1.000   
 n=2   1   2 P   1                   # n, l, Nzeta, Polarization, NzetaPol
   5.659      3.653   
   1.000      1.000   
%endblock PAO.Basis

prinput: ----------------------------------------------------------------------

coor:   Atomic-coordinates input format  =     Cartesian coordinates
coor:                                          (in Angstroms)

siesta: Atomic coordinates (Bohr) and species
siesta:      2.23554   1.32097   0.00000  1        1
siesta:     32.50328  21.48508   0.00000  1        2
siesta:     34.83116  17.45226   0.00000  1        3
siesta:     30.17465   9.38661   0.00000  1        4
siesta:      6.89168   1.32097   0.00000  1        5
siesta:     11.54782   1.32097   0.00000  1        6
siesta:     16.20396   1.32097   0.00000  1        7
siesta:     20.86199   1.32097   0.00000  1        8
siesta:     25.51813   1.32097   0.00000  1        9
siesta:      4.56380   5.35379   0.00000  1       10
siesta:     13.87608   5.35379   0.00000  1       11
siesta:     23.19025   5.35379   0.00000  1       12
siesta:      6.89205   9.38661   0.00000  1       13
siesta:     11.54820   9.38661   0.00000  1       14
siesta:     16.20434   9.38661   0.00000  1       15
siesta:     20.86237   9.38661   0.00000  1       16
siesta:      9.22031  13.41944   0.00000  1       17
siesta:     18.53448  13.41944   0.00000  1       18
siesta:     11.54857  17.45226   0.00000  1       19
siesta:     16.20471  17.45226   0.00000  1       20
siesta:     13.87683  21.48508   0.00000  1       21
siesta:     25.51851   9.38661   0.00000  1       22
siesta:     20.86274  17.45226   0.00000  1       23
siesta:     27.84677  13.41944   0.00000  1       24
siesta:     25.51888  17.45226   0.00000  1       25
siesta:     23.19100  21.48508   0.00000  1       26
siesta:     30.17503  17.45226   0.00000  1       27
siesta:      4.56367   2.66461   0.00000  2       28
siesta:     34.83141  22.82873   0.00000  2       29
siesta:     37.15930  18.79590   0.00000  2       30
siesta:     32.50291  13.41944   0.00000  2       31
siesta:     34.83104  14.76308   0.00000  2       32
siesta:     32.50278  10.73026   0.00000  2       33
siesta:     27.84639   5.35379   0.00000  2       34
siesta:     30.17453   6.69743   0.00000  2       35
siesta:     27.84714  21.48508   0.00000  2       36
siesta:     30.17527  22.82873   0.00000  2       37
siesta:      9.21981   2.66461   0.00000  2       38
siesta:     13.87595   2.66461   0.00000  2       39
siesta:     18.53210   2.66461   0.00000  2       40
siesta:     23.19013   2.66461   0.00000  2       41
siesta:     27.84627   2.66461   0.00000  2       42
siesta:      6.89193   6.69743   0.00000  2       43
siesta:      9.21994   5.35379   0.00000  2       44
siesta:     11.54807   6.69743   0.00000  2       45
siesta:     16.20421   6.69743   0.00000  2       46
siesta:     18.53411   5.35379   0.00000  2       47
siesta:     20.86224   6.69743   0.00000  2       48
siesta:     25.51838   6.69743   0.00000  2       49
siesta:      9.22019  10.73026   0.00000  2       50
siesta:     13.87633  10.73026   0.00000  2       51
siesta:     18.53247  10.73026   0.00000  2       52
siesta:     23.19050  10.73026   0.00000  2       53
siesta:     11.54845  14.76308   0.00000  2       54
siesta:     13.87645  13.41944   0.00000  2       55
siesta:     16.20459  14.76308   0.00000  2       56
siesta:     20.86262  14.76308   0.00000  2       57
siesta:     13.87670  18.79590   0.00000  2       58
siesta:     18.53284  18.79590   0.00000  2       59
siesta:     16.20496  22.82873   0.00000  2       60
siesta:     18.53486  21.48508   0.00000  2       61
siesta:     20.86299  22.82873   0.00000  2       62
siesta:     27.84664  10.73026   0.00000  2       63
siesta:     23.19063  13.41944   0.00000  2       64
siesta:     25.51876  14.76308   0.00000  2       65
siesta:     23.19088  18.79590   0.00000  2       66
siesta:     30.17490  14.76308   0.00000  2       67
siesta:     27.84702  18.79590   0.00000  2       68
siesta:     25.51913  22.82873   0.00000  2       69
siesta:     32.50316  18.79590   0.00000  2       70
siesta:     37.16131  21.48508   0.00000  2       71
siesta:     39.48945  22.82873   0.00000  2       72

siesta: System type = slab      

initatomlists: Number of atoms, orbitals, and projectors:     72   936  1152

siesta: ******************** Simulation parameters ****************************
siesta:
siesta: The following are some of the parameters of the simulation.
siesta: A complete list of the parameters used, including default values,
siesta: can be found in file out.fdf
siesta:
redata: Non-Collinear-spin run           =     F
redata: SpinPolarized (Up/Down) run      =     F
redata: Number of spin components        =     1
redata: Long output                      =     F
redata: Number of Atomic Species         =        2
redata: Charge density info will appear in .RHO file
redata: Write Mulliken Pop.              =     NO
redata: Mesh Cutoff                      =   200.0000  Ry
redata: Net charge of the system         =     0.0000 |e|
redata: Max. number of SCF Iter          =      500
redata: SCF convergence failure will abort job
redata: Performing Pulay mixing using    =    10 iterations
redata: Mix DM in first SCF step ?       =     F
redata: Write Pulay info on disk?        =     F
redata: Discard 1st Pulay DM after  kick =     F
redata: New DM Mixing Weight             =     0.0500
redata: New DM Occupancy tolerance       = 0.000000000001
redata: No kicks to SCF
redata: DM Mixing Weight for Kicks       =     0.5000
redata: DM Tolerance for SCF             =     0.000100
redata: Require Energy convergence for SCF =     F
redata: DM Energy tolerance for SCF      =     0.000100 eV
redata: Require Harris convergence for SCF =     F
redata: DM Harris energy tolerance for SCF =     0.000100 eV
redata: Using Saved Data (generic)   =     F
redata: Use continuation files for DM    =     T
redata: Neglect nonoverlap interactions  =     F
redata: Method of Calculation            =     Diagonalization
redata: Divide and Conquer               =     T
redata: Electronic Temperature           =     0.0019  Ry
redata: Fix the spin of the system       =     F
redata: Dynamics option                  =     Verlet MD run
redata: Initial MD time step             =        1
redata:   Final MD time step             =        1
redata: Length of MD time step           =     1.0000  fs
redata: Initial Temperature of MD run    =     0.0000  K
redata: Perform a MD quench              =     F
redata: ***********************************************************************
Total number of electrons:   261.000000
Total ionic charge:   261.000000

* ProcessorY, Blocksize:    2  24

k-point displ. along   1 input, could be:     0.00    0.50
k-point displ. along   2 input, could be:     0.00    0.50
 Kpoints in:          364 . Kpoints trimmed:          352

siesta: k-grid: Number of k-points =   352
siesta: k-grid: Cutoff (effective) =     5.000 Ang
siesta: k-grid: Supercell and displacements
siesta: k-grid:   26   0   0      0.000
siesta: k-grid:    0  26   0      0.000
siesta: k-grid:    0   0   1      0.000
Naive supercell factors:     2    2    2

superc: Internal auxiliary supercell:     2 x     2 x     2  =       8
superc: Number of atoms, orbitals, and projectors:    576   7488   9216

* Maximum dynamic memory allocated =     6 MB

siesta:                 ==============================
                            Begin MD step =      1
                        ==============================

superc: Internal auxiliary supercell:     2 x     2 x     2  =       8
superc: Number of atoms, orbitals, and projectors:    576   7488   9216

outcell: Unit cell vectors (Ang):
       14.785000    0.000000    0.000000
        7.393000   12.805052    0.000000
        0.000000    0.000000   10.000000

outcell: Cell vector modules (Ang)   :   14.785000   14.786000   10.000000
outcell: Cell angles (23,13,12) (deg):     90.0000     90.0000     60.0000
outcell: Cell volume (Ang**3)        :   1893.2269
New_DM. Step:     1
Initializing Density Matrix...

InitMesh: MESH =   120 x   120 x    90 =     1296000
InitMesh: Mesh cutoff (required, used) =   200.000   223.865 Ry

* Maximum dynamic memory allocated =   231 MB

stepf: Fermi-Dirac step function

siesta: Program's energy decomposition (eV):
siesta: Ebs     =     -4210.744333
siesta: Eions   =     14945.479869
siesta: Ena     =      3356.774004
siesta: Ekin    =      4954.252969
siesta: Enl     =       453.434357
siesta: DEna    =        -0.000005
siesta: DUscf   =         0.000000
siesta: DUext   =         0.000000
siesta: Exc     =     -4004.996491
siesta: eta*DQ  =         0.000000
siesta: Emadel  =         0.000000
siesta: Emeta   =         0.000000
siesta: Emolmec =         0.000000
siesta: Ekinion =         0.000000
siesta: Eharris =    -10100.484370
siesta: Etot    =    -10186.015033
siesta: FreeEng =    -10186.015033

siesta: iscf   Eharris(eV)      E_KS(eV)   FreeEng(eV)   dDmax  Ef(eV)
siesta:    1   -10100.4844   -10186.0150   -10186.0150  1.9017 -9.4612
timer: Routine,Calls,Time,% = IterSCF        1    6920.942  99.82
elaps: Routine,Calls,Wall,% = IterSCF        1     866.252  99.82
siesta:    2   -10106.4403   -10020.6115   -10020.6428  1.2768 -3.7496
siesta:    3   -10057.5326   -10103.5535   -10103.6014  0.8070 -6.3069
siesta:    4   -10057.6784   -10103.5013   -10103.5560  0.8079 -6.2979
siesta:    5   -10056.5612   -10064.6202   -10064.6752  0.2299 -6.2071
siesta:    6   -10058.9146   -10057.2150   -10057.2493  0.1050 -6.3182
siesta:    7   -10054.1291   -10052.7893   -10052.8240  0.0258 -6.3547
siesta:    8   -10053.8779   -10052.4612   -10052.5086  0.0179 -6.3119
siesta:    9   -10053.6650   -10052.7880   -10052.8373  0.0055 -6.3144
siesta:   10   -10053.6639   -10052.8173   -10052.8597  0.0057 -6.3193
siesta:   11   -10053.6581   -10053.2716   -10053.3138  0.0035 -6.3052
siesta:   12   -10053.6585   -10053.4739   -10053.5161  0.0020 -6.2991
siesta:   13   -10053.6575   -10053.5808   -10053.6233  0.0013 -6.3036
siesta:   14   -10053.6572   -10053.5992   -10053.6417  0.0008 -6.3044
siesta:   15   -10053.6571   -10053.6117   -10053.6544  0.0002 -6.3051
siesta:   16   -10053.6571   -10053.6135   -10053.6561  0.0002 -6.3051
siesta:   17   -10053.6571   -10053.6369   -10053.6795  0.0001 -6.3049
siesta:   18   -10053.6571   -10053.6401   -10053.6827  0.0001 -6.3048
siesta:   19   -10053.6571   -10053.6444   -10053.6870  0.0001 -6.3047

siesta: E_KS(eV) =           -10053.6494

siesta: E_KS - E_eggbox =    -10053.6494

siesta: Atomic forces (eV/Ang):
----------------------------------------
   Tot    0.492757    0.598798    0.000000
----------------------------------------
   Max    3.920882
   Res    1.397024    sqrt( Sum f_i^2 / 3N )
----------------------------------------
   Max    3.920882    constrained

Stress-tensor-Voigt (kbar):     -266.95     -264.88       -0.73       -0.63        0.00        0.00
(Free)E + p*V (eV/cell)    -9843.9270
Target enthalpy (eV/cell)   -10053.6920

siesta: Stress tensor (static) (eV/Ang**3):
        -0.166614   -0.000393    0.000000
        -0.000393   -0.165324    0.000000
         0.000000    0.000000   -0.000454

siesta: Pressure (static):        177.51924879  kBar

siesta: Stress tensor (total) (eV/Ang**3):
        -0.166614   -0.000393    0.000000
        -0.000393   -0.165324    0.000000
         0.000000    0.000000   -0.000454

siesta: Pressure (total):        177.51924879  kBar

siesta: Temp_ion =       0.000 K

* Maximum dynamic memory allocated =   246 MB

siesta: Program's energy decomposition (eV):
siesta: Ebs     =     -3285.987494
siesta: Eions   =     14945.479869
siesta: Ena     =      3356.774004
siesta: Ekin    =      6530.095294
siesta: Enl     =      -493.435860
siesta: DEna    =      -417.658251
siesta: DUscf   =        47.975375
siesta: DUext   =         0.000000
siesta: Exc     =     -4131.920087
siesta: eta*DQ  =         0.000000
siesta: Emadel  =         0.000000
siesta: Emeta   =         0.000000
siesta: Emolmec =         0.000000
siesta: Ekinion =         0.000000
siesta: Eharris =    -10053.657111
siesta: Etot    =    -10053.649395
siesta: FreeEng =    -10053.692004

siesta: Final energy (eV):
siesta:  Band Struct. =   -3285.987494
siesta:       Kinetic =    6530.095294
siesta:       Hartree =   18844.576819
siesta:    Ext. field =       0.000000
siesta:   Exch.-corr. =   -4131.920087
siesta:  Ion-electron =  -43528.098382
siesta:       Ion-ion =   12231.696961
siesta:       Ekinion =       0.000000
siesta:         Total =  -10053.649395

siesta: Atomic forces (eV/Ang):
siesta:      1    0.476727    0.267333    0.000000
siesta:      2    0.016543   -0.531752    0.000000
siesta:      3   -0.459833    0.285092    0.000000
siesta:      4   -0.462993    0.282477    0.000000
siesta:      5   -0.463757    0.259224    0.000000
siesta:      6    0.489296    0.260284    0.000000
siesta:      7   -0.458639    0.260806    0.000000
siesta:      8    0.463815    0.274498    0.000000
siesta:      9   -0.461684    0.261042    0.000000
siesta:     10   -0.003987   -0.528950    0.000000
siesta:     11    0.015849   -0.536356    0.000000
siesta:     12    0.014545   -0.536552    0.000000
siesta:     13    0.474195    0.291339    0.000000
siesta:     14   -0.463573    0.283195    0.000000
siesta:     15    0.502191    0.283924    0.000000
siesta:     16   -0.486669    0.298604    0.000000
siesta:     17   -0.003381   -0.528105    0.000000
siesta:     18   -0.014748   -0.519636    0.000000
siesta:     19    0.479649    0.290821    0.000000
siesta:     20   -0.454208    0.286474    0.000000
siesta:     21    0.037340   -0.540304    0.000000
siesta:     22    0.490845    0.284052    0.000000
siesta:     23    0.463307    0.299166    0.000000
siesta:     24    0.010172   -0.535387    0.000000
siesta:     25   -0.463811    0.283030    0.000000
siesta:     26    0.011967   -0.533827    0.000000
siesta:     27    0.488757    0.285155    0.000000
siesta:     28   -0.002854    0.005452    0.000000
siesta:     29    3.423446   -1.926611    0.000000
siesta:     30    0.026050    3.915085    0.000000
siesta:     31    0.005832   -0.006824    0.000000
siesta:     32   -3.379598   -1.952007    0.000000
siesta:     33    0.022588    3.911951    0.000000
siesta:     34    0.007326   -0.006450    0.000000
siesta:     35   -3.379655   -1.952810    0.000000
siesta:     36    0.003062   -0.002219    0.000000
siesta:     37   -3.395388   -1.919238    0.000000
siesta:     38    0.008196    3.916386    0.000000
siesta:     39    0.001199    0.005609    0.000000
siesta:     40    0.043077    3.903545    0.000000
siesta:     41   -0.007968    0.003587    0.000000
siesta:     42    0.020154    3.909940    0.000000
siesta:     43    3.398697   -1.943575    0.000000
siesta:     44    0.003486   -0.005528    0.000000
siesta:     45   -3.394619   -1.945168    0.000000
siesta:     46    3.421594   -1.953174    0.000000
siesta:     47   -0.023605    0.002515    0.000000
siesta:     48   -3.406172   -1.946403    0.000000
siesta:     49    3.398299   -1.943868    0.000000
siesta:     50   -0.001403    0.011535    0.000000
siesta:     51    0.003035    3.920631    0.000000
siesta:     52    0.023928   -0.007282    0.000000
siesta:     53   -0.000177    3.920882    0.000000
siesta:     54    3.395345   -1.942561    0.000000
siesta:     55    0.011824   -0.007249    0.000000
siesta:     56   -3.366857   -1.960654    0.000000
siesta:     57    3.389469   -1.943387    0.000000
siesta:     58   -0.005837    0.007604    0.000000
siesta:     59    0.042403    3.904500    0.000000
siesta:     60    3.425787   -1.927714    0.000000
siesta:     61   -0.024636    0.004200    0.000000
siesta:     62   -3.401630   -1.922373    0.000000
siesta:     63    0.001368    0.010216    0.000000
siesta:     64    0.007558   -0.006772    0.000000
siesta:     65   -3.395223   -1.945256    0.000000
siesta:     66   -0.003718    0.010904    0.000000
siesta:     67    3.400756   -1.944463    0.000000
siesta:     68    0.007880    3.919257    0.000000
siesta:     69    3.399918   -1.919901    0.000000
siesta:     70   -0.000778    0.010527    0.000000
siesta:     71   -0.026549    0.004423    0.000000
siesta:     72   -3.420768   -1.914117    0.000000
siesta: ----------------------------------------
siesta:    Tot    0.492757    0.598798    0.000000

siesta: Stress tensor (static) (eV/Ang**3):
siesta:    -0.166614   -0.000393    0.000000
siesta:    -0.000393   -0.165324    0.000000
siesta:     0.000000    0.000000   -0.000454

siesta: Cell volume =       1893.226895 Ang**3

siesta: Pressure (static):
siesta:                Solid            Molecule  Units
siesta:           0.00120673          0.00153204  Ry/Bohr**3
siesta:           0.11079760          0.14066648  eV/Ang**3
siesta:         177.51924879        225.37498566  kBar
(Free)E+ p_basis*V_orbitals  =      -10014.423646
(Free)Eharris+ p_basis*V_orbitals  =      -10014.436355

siesta: Electric dipole (a.u.)  =    0.000000    0.000000    0.000000
siesta: Electric dipole (Debye) =    0.000000    0.000000    0.000000

* Maximum dynamic memory allocated : Node    0 =   244 MB
* Maximum dynamic memory allocated : Node    1 =    88 MB
* Maximum dynamic memory allocated : Node    2 =    92 MB
* Maximum dynamic memory allocated : Node    3 =   231 MB
* Maximum dynamic memory allocated : Node    4 =   246 MB
* Maximum dynamic memory allocated : Node    5 =    88 MB
* Maximum dynamic memory allocated : Node    6 =    91 MB
* Maximum dynamic memory allocated : Node    7 =   226 MB

* Maximum memory occured during matrixMtoO                    

timer: CPU execution times:
timer:  Routine       Calls   Time/call    Tot.time        %
timer:  siesta            1  131140.429  131140.429   100.00
timer:  Setup             1       3.777       3.777     0.00
timer:  bands             1       0.016       0.016     0.00
timer:  writewave         1       0.040       0.040     0.00
timer:  KSV_init          1       0.007       0.007     0.00
timer:  IterMD            1  131128.701  131128.701    99.99
timer:  hsparse           1       0.391       0.391     0.00
timer:  overlap           1       7.787       7.787     0.01
timer:  IterSCF          19    6889.042  130891.803    99.81
timer:  kinefsm           2       4.035       8.069     0.01
timer:  nlefsm            2      22.118      44.237     0.03
timer:  DHSCF            20     128.123    2562.470     1.95
timer:  DHSCF1            1       0.992       0.992     0.00
timer:  DHSCF2            1      45.274      45.274     0.03
timer:  REORD           162       0.010       1.623     0.00
timer:  POISON           21       2.242      47.088     0.04
timer:  DHSCF3           20     123.518    2470.365     1.88
timer:  rhoofd           20      24.888     497.761     0.38
timer:  cellXC           20       3.471      69.425     0.05
timer:  vmat             20      64.021    1280.410     0.98
timer:  MolMec            2       0.000       0.000     0.00
timer:  diagon           19    6759.579  128432.008    97.93
timer:  c-eigval       6688       6.702   44821.250    34.18
timer:  c-buildHS      6688       0.128     855.790     0.65
timer:  cdiag         13376       6.884   92077.485    70.21
timer:  cdiag1        13376       0.429    5742.992     4.38
timer:  cdiag2        13376       1.910   25554.324    19.49
timer:  cdiag3        13376       3.958   52935.753    40.37
timer:  cdiag4        13376       0.225    3014.237     2.30
timer:  c-eigvec       6688       7.273   48642.430    37.09
timer:  c-buildD       6688       5.220   34912.432    26.62
timer:  DHSCF4            1      44.698      44.698     0.03
timer:  dfscf             1      41.984      41.984     0.03
timer:  overfsm           1       0.486       0.486     0.00
timer:  optical           1       6.990       6.990     0.01
  

elaps: ELAPSED times:
elaps:  Routine       Calls   Time/call    Tot.time        %
elaps:  siesta            1   16411.857   16411.857   100.00
elaps:  Setup             1       0.487       0.487     0.00
elaps:  bands             1       0.002       0.002     0.00
elaps:  writewave         1       0.006       0.006     0.00
elaps:  KSV_init          1       0.001       0.001     0.00
elaps:  IterMD            1   16410.368   16410.368    99.99
elaps:  hsparse           1       0.048       0.048     0.00
elaps:  overlap           1       0.975       0.975     0.01
elaps:  IterSCF          19     862.151   16380.877    99.81
elaps:  kinefsm           2       0.506       1.012     0.01
elaps:  nlefsm            2       2.824       5.649     0.03
elaps:  DHSCF            20      16.240     324.794     1.98
elaps:  DHSCF1            1       0.128       0.128     0.00
elaps:  DHSCF2            1       5.656       5.656     0.03
elaps:  REORD           162       0.001       0.214     0.00
elaps:  POISON           21       0.281       5.905     0.04
elaps:  DHSCF3           20      15.453     309.055     1.88
elaps:  rhoofd           20       5.248     104.966     0.64
elaps:  cellXC           20       0.433       8.670     0.05
elaps:  vmat             20       8.009     160.176     0.98
elaps:  MolMec            2       0.000       0.000     0.00
elaps:  diagon           19     845.959   16073.222    97.94
elaps:  c-eigval       6688       0.838    5607.788    34.17
elaps:  c-buildHS      6688       0.017     116.334     0.71
elaps:  cdiag         13376       0.850   11365.589    69.25
elaps:  cdiag1        13376       0.053     709.346     4.32
elaps:  cdiag2        13376       0.239    3197.239    19.48
elaps:  cdiag3        13376       0.496    6631.835    40.41
elaps:  cdiag4        13376       0.029     381.710     2.33
elaps:  c-eigvec       6688       0.890    5953.082    36.27
elaps:  c-buildD       6688       0.674    4504.650    27.45
elaps:  DHSCF4            1       9.808       9.808     0.06
elaps:  dfscf             1       9.293       9.293     0.06
elaps:  overfsm           1       0.061       0.061     0.00
elaps:  optical           1       0.001       0.001     0.00
  
>> End of run:   4-DEC-2015  23:39:17
