Siesta Version:                                        siesta-3.2-pl-3
Architecture  : x86_64-unknown-linux-gnu--unknown
Compiler flags: mpiifort -g -O2 -fPIC -xSSE4.1 -fp-model source -shared-intel 
PARALLEL version

* Running on    8 nodes in parallel
>> Start of run:   5-DEC-2015   4:16:22

                           ***********************       
                           *  WELCOME TO SIESTA  *       
                           ***********************       

reinit: Reading from standard input
************************** Dump of input data file ****************************
#(1) General system descriptors
SystemName            GRP_doping    # Descriptive name of the system
SystemLabel           GRP_doping    # Short name for naming files
%include STRUCT.fdf
%include KPT.fdf
%include BASIS.fdf
#%include TS.fdf # for transiesta calculation
#(4) DFT, Grid, SCF
XC.functional         GGA           # LDA or GGA (default = LDA)
XC.authors            PBE           # CA (Ceperley-Aldr) = PZ
                                    #    (Perdew-Zunger) - LDA - Default
                                    # PW92 (Perdew-Wang-92) - LDA
                                    # PBE (Perdew-Burke-Ernzerhof) - GGA
MeshCutoff            200.000000    Ry      # Default: 50.0 Ry ~ 0.444 Bohr
                                    #         100.0 Ry ~ 0.314 Bohr
MaxSCFIterations      500           # Default: 50
DM.MixingWeight       0.05          # Default: 0.25
DM.NumberPulay        10            # Default: 0
DM.PulayOnFile        F             # SystemLabel.P1, SystemLabel.P2
DM.Tolerance          1.d-4         # Default: 1.d-4
DM.UseSaveDM          .true.        # because of the bug
SCFMustConverge       .true.
NeglNonOverlapInt     F             # Default: F
#(5) Eigenvalue problem: order-N or diagonalization
SolutionMethod        Diagon        # or Transiesta
ElectronicTemperature 300.0 K       # Default: 300.0 K
#(6) Molecular dynamics and relaxations
#MD.TypeOfRun          CG            # Type of dynamics:
#MD.VariableCell       F
#MD.NumCGsteps         0           # 0 for single-point / 100 for gopt
#MD.MaxCGDispl         0.2 Bohr      # Default: 0.2 Bohr
#MD.MaxForceTol        0.02 eV/Ang   # Default: 0.04 eV/Ang
#MD.MaxStressTol       1.0 GPa       # Default: 1.0 GPa
# Geometry Constraints
#%block GeometryConstraints
#	position from 1 to 44
#%endblock GeometryConstraints
************************** End of input data file *****************************

reinit: -----------------------------------------------------------------------
reinit: System Name: GRP_doping
reinit: -----------------------------------------------------------------------
reinit: System Label: GRP_doping                                                  
reinit: -----------------------------------------------------------------------

initatom: Reading input for the pseudopotentials and atomic orbitals ----------
 Species number:            1  Label: N Atomic number:           7
 Species number:            2  Label: C Atomic number:           6
Ground state valence configuration:   2s02  2p03
Reading pseudopotential information in formatted form from N.psf

Valence configuration for pseudopotential generation:
2s( 2.00) rc: 1.48
2p( 3.00) rc: 1.48
3d( 0.00) rc: 1.48
4f( 0.00) rc: 1.48
Ground state valence configuration:   2s02  2p02
Reading pseudopotential information in formatted form from C.psf

Valence configuration for pseudopotential generation:
2s( 2.00) rc: 1.54
2p( 2.00) rc: 1.54
3d( 0.00) rc: 1.54
4f( 0.00) rc: 1.54
For N, standard SIESTA heuristics set lmxkb to 3
 (one more than the basis l, including polarization orbitals).
Use PS.lmax or PS.KBprojectors blocks to override.
For C, standard SIESTA heuristics set lmxkb to 3
 (one more than the basis l, including polarization orbitals).
Use PS.lmax or PS.KBprojectors blocks to override.

<basis_specs>
===============================================================================
N                    Z=   7    Mass=  14.010        Charge= 0.17977+309
Lmxo=1 Lmxkb= 3    BasisType=split      Semic=F
L=0  Nsemic=0  Cnfigmx=2
          n=1  nzeta=2  polorb=0
            splnorm:   0.15000    
               vcte:    0.0000    
               rinn:    0.0000    
                rcs:    0.0000      0.0000    
            lambdas:    1.0000      1.0000    
L=1  Nsemic=0  Cnfigmx=2
          n=1  nzeta=2  polorb=1
            splnorm:   0.15000    
               vcte:    0.0000    
               rinn:    0.0000    
                rcs:    0.0000      0.0000    
            lambdas:    1.0000      1.0000    
-------------------------------------------------------------------------------
L=0  Nkbl=1  erefs: 0.17977+309
L=1  Nkbl=1  erefs: 0.17977+309
L=2  Nkbl=1  erefs: 0.17977+309
L=3  Nkbl=1  erefs: 0.17977+309
===============================================================================
</basis_specs>

atom: Called for N                     (Z =   7)

read_vps: Pseudopotential generation method:
read_vps: ATM3      Troullier-Martins                       
Total valence charge:    5.00000

read_vps: Pseudopotential includes a core correction:
read_vps: Pseudo-core for xc-correction

xc_check: Exchange-correlation functional:
xc_check: GGA Perdew, Burke & Ernzerhof 1996
V l=0 = -2*Zval/r beyond r=  1.4606
V l=1 = -2*Zval/r beyond r=  1.4606
V l=2 = -2*Zval/r beyond r=  1.4606
V l=3 = -2*Zval/r beyond r=  1.4606
All V_l potentials equal beyond r=  1.4606
This should be close to max(r_c) in ps generation
All pots = -2*Zval/r beyond r=  1.4606

VLOCAL1: 99.0% of the norm of Vloc inside     20.347 Ry
VLOCAL1: 99.9% of the norm of Vloc inside     46.372 Ry
atom: Maximum radius for 4*pi*r*r*local-pseudopot. charge    1.76189
atom: Maximum radius for r*vlocal+2*Zval:    1.53550
GHOST: No ghost state for L =  0
GHOST: No ghost state for L =  1
GHOST: No ghost state for L =  2
GHOST: No ghost state for L =  3

KBgen: Kleinman-Bylander projectors: 
   l= 0   rc=  1.634559   el= -1.363963   Ekb=  5.296955   kbcos=  0.335621
   l= 1   rc=  1.614250   el= -0.521451   Ekb= -5.259161   kbcos= -0.433408
   l= 2   rc=  1.718383   el=  0.001991   Ekb= -1.271464   kbcos= -0.007566
   l= 3   rc=  1.761893   el=  0.003093   Ekb= -0.494769   kbcos= -0.001015

KBgen: Total number of  Kleinman-Bylander projectors:   16
atom: -------------------------------------------------------------------------

atom: SANKEY-TYPE ORBITALS:
atom: Selected multiple-zeta basis: split     

SPLIT: Orbitals with angular momentum L= 0

SPLIT: Basis orbitals for state 2s

SPLIT: PAO cut-off radius determined from an
SPLIT: energy shift=  0.007350 Ry

   izeta = 1
                 lambda =    1.000000
                     rc =    4.071465
                 energy =   -1.356470
                kinetic =    1.176977
    potential(screened) =   -2.533447
       potential(ionic) =   -8.057990

   izeta = 2
                 rmatch =    2.905100
              splitnorm =    0.150000
                 energy =   -1.158343
                kinetic =    1.813009
    potential(screened) =   -2.971352
       potential(ionic) =   -8.901931

SPLIT: Orbitals with angular momentum L= 1

SPLIT: Basis orbitals for state 2p

SPLIT: PAO cut-off radius determined from an
SPLIT: energy shift=  0.007350 Ry

   izeta = 1
                 lambda =    1.000000
                     rc =    4.972977
                 energy =   -0.513884
                kinetic =    3.441732
    potential(screened) =   -3.955616
       potential(ionic) =   -9.287901

   izeta = 2
                 rmatch =    3.054066
              splitnorm =    0.150000
                 energy =   -0.318226
                kinetic =    5.125348
    potential(screened) =   -5.443573
       potential(ionic) =  -11.380999

POLgen: Perturbative polarization orbital with L=  2

POLgen: Polarization orbital for state 2p

   izeta = 1
                     rc =    4.972977
                 energy =    1.607437
                kinetic =    3.268125
    potential(screened) =   -1.660688
       potential(ionic) =   -5.973652
atom: Total number of Sankey-type orbitals: 13

atm_pop: Valence configuration (for local Pseudopot. screening):
 2s( 2.00)                                                            
 2p( 3.00)                                                            
Vna: chval, zval:    5.00000   5.00000

Vna:  Cut-off radius for the neutral-atom potential:   4.972977
comcore: Pseudo-core radius Rcore=  1.554824

atom: _________________________________________________________________________

<basis_specs>
===============================================================================
C                    Z=   6    Mass=  12.010        Charge= 0.17977+309
Lmxo=1 Lmxkb= 3    BasisType=split      Semic=F
L=0  Nsemic=0  Cnfigmx=2
          n=1  nzeta=2  polorb=0
            splnorm:   0.15000    
               vcte:    0.0000    
               rinn:    0.0000    
                rcs:    0.0000      0.0000    
            lambdas:    1.0000      1.0000    
L=1  Nsemic=0  Cnfigmx=2
          n=1  nzeta=2  polorb=1
            splnorm:   0.15000    
               vcte:    0.0000    
               rinn:    0.0000    
                rcs:    0.0000      0.0000    
            lambdas:    1.0000      1.0000    
-------------------------------------------------------------------------------
L=0  Nkbl=1  erefs: 0.17977+309
L=1  Nkbl=1  erefs: 0.17977+309
L=2  Nkbl=1  erefs: 0.17977+309
L=3  Nkbl=1  erefs: 0.17977+309
===============================================================================
</basis_specs>

atom: Called for C                     (Z =   6)

read_vps: Pseudopotential generation method:
read_vps: ATM3      Troullier-Martins                       
Total valence charge:    4.00000

read_vps: Pseudopotential includes a core correction:
read_vps: Pseudo-core for xc-correction

xc_check: Exchange-correlation functional:
xc_check: GGA Perdew, Burke & Ernzerhof 1996
V l=0 = -2*Zval/r beyond r=  1.5227
V l=1 = -2*Zval/r beyond r=  1.5227
V l=2 = -2*Zval/r beyond r=  1.5227
V l=3 = -2*Zval/r beyond r=  1.5038
All V_l potentials equal beyond r=  1.5227
This should be close to max(r_c) in ps generation
All pots = -2*Zval/r beyond r=  1.5227

VLOCAL1: 99.0% of the norm of Vloc inside     18.722 Ry
VLOCAL1: 99.9% of the norm of Vloc inside     42.668 Ry
atom: Maximum radius for 4*pi*r*r*local-pseudopot. charge    1.83678
atom: Maximum radius for r*vlocal+2*Zval:    1.58088
GHOST: No ghost state for L =  0
GHOST: No ghost state for L =  1
GHOST: No ghost state for L =  2
GHOST: No ghost state for L =  3

KBgen: Kleinman-Bylander projectors: 
   l= 0   rc=  1.704034   el= -1.009801   Ekb=  5.335044   kbcos=  0.316824
   l= 1   rc=  1.704034   el= -0.388707   Ekb= -3.785862   kbcos= -0.366464
   l= 2   rc=  1.791422   el=  0.001971   Ekb= -0.970471   kbcos= -0.009212
   l= 3   rc=  1.859892   el=  0.003065   Ekb= -0.399525   kbcos= -0.001223

KBgen: Total number of  Kleinman-Bylander projectors:   16
atom: -------------------------------------------------------------------------

atom: SANKEY-TYPE ORBITALS:
atom: Selected multiple-zeta basis: split     

SPLIT: Orbitals with angular momentum L= 0

SPLIT: Basis orbitals for state 2s

SPLIT: PAO cut-off radius determined from an
SPLIT: energy shift=  0.007350 Ry

   izeta = 1
                 lambda =    1.000000
                     rc =    4.632753
                 energy =   -1.002270
                kinetic =    0.855760
    potential(screened) =   -1.858031
       potential(ionic) =   -5.417575

   izeta = 2
                 rmatch =    3.431921
              splitnorm =    0.150000
                 energy =   -0.867111
                kinetic =    1.300804
    potential(screened) =   -2.167915
       potential(ionic) =   -5.962684

SPLIT: Orbitals with angular momentum L= 1

SPLIT: Basis orbitals for state 2p

SPLIT: PAO cut-off radius determined from an
SPLIT: energy shift=  0.007350 Ry

   izeta = 1
                 lambda =    1.000000
                     rc =    5.658549
                 energy =   -0.381140
                kinetic =    2.399701
    potential(screened) =   -2.780841
       potential(ionic) =   -6.206085

   izeta = 2
                 rmatch =    3.653288
              splitnorm =    0.150000
                 energy =   -0.249149
                kinetic =    3.542762
    potential(screened) =   -3.791911
       potential(ionic) =   -7.581078

POLgen: Perturbative polarization orbital with L=  2

POLgen: Polarization orbital for state 2p

   izeta = 1
                     rc =    5.658549
                 energy =    1.109913
                kinetic =    2.304789
    potential(screened) =   -1.194876
       potential(ionic) =   -4.013592
atom: Total number of Sankey-type orbitals: 13

atm_pop: Valence configuration (for local Pseudopot. screening):
 2s( 2.00)                                                            
 2p( 2.00)                                                            
Vna: chval, zval:    4.00000   4.00000

Vna:  Cut-off radius for the neutral-atom potential:   5.658549
comcore: Pseudo-core radius Rcore=  1.791422

atom: _________________________________________________________________________

prinput: Basis input ----------------------------------------------------------

PAO.BasisType split     

%block ChemicalSpeciesLabel
    1    7 N                       # Species index, atomic number, species label
    2    6 C                       # Species index, atomic number, species label
%endblock ChemicalSpeciesLabel

%block PAO.Basis                 # Define Basis set
N                     2                    # Species label, number of l-shells
 n=2   0   2                         # n, l, Nzeta 
   4.071      2.905   
   1.000      1.000   
 n=2   1   2 P   1                   # n, l, Nzeta, Polarization, NzetaPol
   4.973      3.054   
   1.000      1.000   
C                     2                    # Species label, number of l-shells
 n=2   0   2                         # n, l, Nzeta 
   4.633      3.432   
   1.000      1.000   
 n=2   1   2 P   1                   # n, l, Nzeta, Polarization, NzetaPol
   5.659      3.653   
   1.000      1.000   
%endblock PAO.Basis

prinput: ----------------------------------------------------------------------

coor:   Atomic-coordinates input format  =     Cartesian coordinates
coor:                                          (in Angstroms)

siesta: Atomic coordinates (Bohr) and species
siesta:      2.23554   1.32097   0.00000  1        1
siesta:     32.50328  21.48508   0.00000  1        2
siesta:     32.50291  13.41944   0.00000  1        3
siesta:     27.84639   5.35379   0.00000  1        4
siesta:     27.84714  21.48508   0.00000  1        5
siesta:     11.54782   1.32097   0.00000  1        6
siesta:     20.86199   1.32097   0.00000  1        7
siesta:      4.56380   5.35379   0.00000  1        8
siesta:      9.21994   5.35379   0.00000  1        9
siesta:     13.87608   5.35379   0.00000  1       10
siesta:     18.53411   5.35379   0.00000  1       11
siesta:     23.19025   5.35379   0.00000  1       12
siesta:      6.89205   9.38661   0.00000  1       13
siesta:     16.20434   9.38661   0.00000  1       14
siesta:      9.22031  13.41944   0.00000  1       15
siesta:     13.87645  13.41944   0.00000  1       16
siesta:     18.53448  13.41944   0.00000  1       17
siesta:     11.54857  17.45226   0.00000  1       18
siesta:     13.87683  21.48508   0.00000  1       19
siesta:     18.53486  21.48508   0.00000  1       20
siesta:     25.51851   9.38661   0.00000  1       21
siesta:     23.19063  13.41944   0.00000  1       22
siesta:     20.86274  17.45226   0.00000  1       23
siesta:     27.84677  13.41944   0.00000  1       24
siesta:     23.19100  21.48508   0.00000  1       25
siesta:     30.17503  17.45226   0.00000  1       26
siesta:     37.16131  21.48508   0.00000  1       27
siesta:      4.56367   2.66461   0.00000  2       28
siesta:     34.83141  22.82873   0.00000  2       29
siesta:     34.83116  17.45226   0.00000  2       30
siesta:     37.15930  18.79590   0.00000  2       31
siesta:     34.83104  14.76308   0.00000  2       32
siesta:     30.17465   9.38661   0.00000  2       33
siesta:     32.50278  10.73026   0.00000  2       34
siesta:     30.17453   6.69743   0.00000  2       35
siesta:     30.17527  22.82873   0.00000  2       36
siesta:      6.89168   1.32097   0.00000  2       37
siesta:      9.21981   2.66461   0.00000  2       38
siesta:     13.87595   2.66461   0.00000  2       39
siesta:     16.20396   1.32097   0.00000  2       40
siesta:     18.53210   2.66461   0.00000  2       41
siesta:     23.19013   2.66461   0.00000  2       42
siesta:     25.51813   1.32097   0.00000  2       43
siesta:     27.84627   2.66461   0.00000  2       44
siesta:      6.89193   6.69743   0.00000  2       45
siesta:     11.54807   6.69743   0.00000  2       46
siesta:     16.20421   6.69743   0.00000  2       47
siesta:     20.86224   6.69743   0.00000  2       48
siesta:     25.51838   6.69743   0.00000  2       49
siesta:      9.22019  10.73026   0.00000  2       50
siesta:     11.54820   9.38661   0.00000  2       51
siesta:     13.87633  10.73026   0.00000  2       52
siesta:     18.53247  10.73026   0.00000  2       53
siesta:     20.86237   9.38661   0.00000  2       54
siesta:     23.19050  10.73026   0.00000  2       55
siesta:     11.54845  14.76308   0.00000  2       56
siesta:     16.20459  14.76308   0.00000  2       57
siesta:     20.86262  14.76308   0.00000  2       58
siesta:     13.87670  18.79590   0.00000  2       59
siesta:     16.20471  17.45226   0.00000  2       60
siesta:     18.53284  18.79590   0.00000  2       61
siesta:     16.20496  22.82873   0.00000  2       62
siesta:     20.86299  22.82873   0.00000  2       63
siesta:     27.84664  10.73026   0.00000  2       64
siesta:     25.51876  14.76308   0.00000  2       65
siesta:     23.19088  18.79590   0.00000  2       66
siesta:     30.17490  14.76308   0.00000  2       67
siesta:     25.51888  17.45226   0.00000  2       68
siesta:     27.84702  18.79590   0.00000  2       69
siesta:     25.51913  22.82873   0.00000  2       70
siesta:     32.50316  18.79590   0.00000  2       71
siesta:     39.48945  22.82873   0.00000  2       72

siesta: System type = slab      

initatomlists: Number of atoms, orbitals, and projectors:     72   936  1152

siesta: ******************** Simulation parameters ****************************
siesta:
siesta: The following are some of the parameters of the simulation.
siesta: A complete list of the parameters used, including default values,
siesta: can be found in file out.fdf
siesta:
redata: Non-Collinear-spin run           =     F
redata: SpinPolarized (Up/Down) run      =     F
redata: Number of spin components        =     1
redata: Long output                      =     F
redata: Number of Atomic Species         =        2
redata: Charge density info will appear in .RHO file
redata: Write Mulliken Pop.              =     NO
redata: Mesh Cutoff                      =   200.0000  Ry
redata: Net charge of the system         =     0.0000 |e|
redata: Max. number of SCF Iter          =      500
redata: SCF convergence failure will abort job
redata: Performing Pulay mixing using    =    10 iterations
redata: Mix DM in first SCF step ?       =     F
redata: Write Pulay info on disk?        =     F
redata: Discard 1st Pulay DM after  kick =     F
redata: New DM Mixing Weight             =     0.0500
redata: New DM Occupancy tolerance       = 0.000000000001
redata: No kicks to SCF
redata: DM Mixing Weight for Kicks       =     0.5000
redata: DM Tolerance for SCF             =     0.000100
redata: Require Energy convergence for SCF =     F
redata: DM Energy tolerance for SCF      =     0.000100 eV
redata: Require Harris convergence for SCF =     F
redata: DM Harris energy tolerance for SCF =     0.000100 eV
redata: Using Saved Data (generic)   =     F
redata: Use continuation files for DM    =     T
redata: Neglect nonoverlap interactions  =     F
redata: Method of Calculation            =     Diagonalization
redata: Divide and Conquer               =     T
redata: Electronic Temperature           =     0.0019  Ry
redata: Fix the spin of the system       =     F
redata: Dynamics option                  =     Verlet MD run
redata: Initial MD time step             =        1
redata:   Final MD time step             =        1
redata: Length of MD time step           =     1.0000  fs
redata: Initial Temperature of MD run    =     0.0000  K
redata: Perform a MD quench              =     F
redata: ***********************************************************************
Total number of electrons:   315.000000
Total ionic charge:   315.000000

* ProcessorY, Blocksize:    2  24

k-point displ. along   1 input, could be:     0.00    0.50
k-point displ. along   2 input, could be:     0.00    0.50
 Kpoints in:          364 . Kpoints trimmed:          352

siesta: k-grid: Number of k-points =   352
siesta: k-grid: Cutoff (effective) =     5.000 Ang
siesta: k-grid: Supercell and displacements
siesta: k-grid:   26   0   0      0.000
siesta: k-grid:    0  26   0      0.000
siesta: k-grid:    0   0   1      0.000
Naive supercell factors:     2    2    2

superc: Internal auxiliary supercell:     2 x     2 x     2  =       8
superc: Number of atoms, orbitals, and projectors:    576   7488   9216

* Maximum dynamic memory allocated =     6 MB

siesta:                 ==============================
                            Begin MD step =      1
                        ==============================

superc: Internal auxiliary supercell:     2 x     2 x     2  =       8
superc: Number of atoms, orbitals, and projectors:    576   7488   9216

outcell: Unit cell vectors (Ang):
       14.785000    0.000000    0.000000
        7.393000   12.805052    0.000000
        0.000000    0.000000   10.000000

outcell: Cell vector modules (Ang)   :   14.785000   14.786000   10.000000
outcell: Cell angles (23,13,12) (deg):     90.0000     90.0000     60.0000
outcell: Cell volume (Ang**3)        :   1893.2269
New_DM. Step:     1
Initializing Density Matrix...

iodm: Reading Density Matrix from files
 Read DM has different structure. Fixing...

InitMesh: MESH =   120 x   120 x    90 =     1296000
InitMesh: Mesh cutoff (required, used) =   200.000   223.865 Ry

* Maximum dynamic memory allocated =   175 MB

stepf: Fermi-Dirac step function

siesta: Program's energy decomposition (eV):
siesta: Ebs     =     -4275.616591
siesta: Eions   =     22743.175864
siesta: Ena     =      4239.824363
siesta: Ekin    =      9148.082401
siesta: Enl     =      -863.902975
siesta: DEna    =      -264.146349
siesta: DUscf   =       176.850566
siesta: DUext   =         0.000000
siesta: Exc     =     -4714.495075
siesta: eta*DQ  =         0.000000
siesta: Emadel  =         0.000000
siesta: Emeta   =         0.000000
siesta: Emolmec =         0.000000
siesta: Ekinion =         0.000000
siesta: Eharris =    -15115.025887
siesta: Etot    =    -15020.962933
siesta: FreeEng =    -15020.962933

siesta: iscf   Eharris(eV)      E_KS(eV)   FreeEng(eV)   dDmax  Ef(eV)
siesta:    1   -15115.0259   -15020.9629   -15020.9629  1.8280 -0.4275
timer: Routine,Calls,Time,% = IterSCF        1    6483.506  99.82
elaps: Routine,Calls,Wall,% = IterSCF        1     811.373  99.82
siesta:    2   -15697.2774   -14408.8068   -14408.8713  1.0301 -2.7240
siesta:    3   -14907.1877   -14826.3547   -14826.4156  0.6069 -2.1356
siesta:    4   -14894.9149   -14830.5935   -14830.6153  0.5973 -2.1722
siesta:    5   -14840.7255   -14787.6530   -14787.6751  0.5586 -2.9448
siesta:    6   -14838.8347   -14772.8046   -14772.8283  0.4291 -3.2483
siesta:    7   -14836.9688   -14793.6364   -14793.6606  0.2898 -3.0791
siesta:    8   -14836.5841   -14811.9503   -14811.9752  0.1955 -2.8340
siesta:    9   -14835.5532   -14816.5475   -14816.5765  0.1288 -2.8295
siesta:   10   -14834.8994   -14827.0462   -14827.0732  0.0300 -2.7730
siesta:   11   -14834.8692   -14829.2671   -14829.2923  0.0097 -2.7651
siesta:   12   -14834.8434   -14830.8194   -14830.8446  0.0107 -2.7671
siesta:   13   -14834.8405   -14832.8007   -14832.8259  0.0042 -2.7678
siesta:   14   -14834.8400   -14833.3988   -14833.4241  0.0027 -2.7681
siesta:   15   -14834.8391   -14834.5847   -14834.6099  0.0032 -2.7738
siesta:   16   -14834.8386   -14834.8109   -14834.8362  0.0004 -2.7753
siesta:   17   -14834.8386   -14834.9028   -14834.9281  0.0008 -2.7755
siesta:   18   -14834.8386   -14834.8159   -14834.8411  0.0005 -2.7754
siesta:   19   -14834.8386   -14834.8374   -14834.8627  0.0003 -2.7755
siesta:   20   -14834.8386   -14834.8370   -14834.8622  0.0001 -2.7753
siesta:   21   -14834.8386   -14834.8215   -14834.8468  0.0001 -2.7755

siesta: E_KS(eV) =           -14834.8212

siesta: E_KS - E_eggbox =    -14834.8212

siesta: Atomic forces (eV/Ang):
----------------------------------------
   Tot    0.149350   -0.435989    0.000000
----------------------------------------
   Max    0.597227
   Res    0.230313    sqrt( Sum f_i^2 / 3N )
----------------------------------------
   Max    0.597227    constrained

Stress-tensor-Voigt (kbar):       71.76       71.94        0.38       -0.22        0.00        0.00
(Free)E + p*V (eV/cell)   -14891.6010
Target enthalpy (eV/cell)   -14834.8465

siesta: Stress tensor (static) (eV/Ang**3):
         0.044791   -0.000139    0.000000
        -0.000139    0.044904    0.000000
         0.000000    0.000000    0.000239

siesta: Pressure (static):        -48.03004094  kBar

siesta: Stress tensor (total) (eV/Ang**3):
         0.044791   -0.000139    0.000000
        -0.000139    0.044904    0.000000
         0.000000    0.000000    0.000239

siesta: Pressure (total):        -48.03004094  kBar

siesta: Temp_ion =       0.000 K

* Maximum dynamic memory allocated =   190 MB

siesta: Program's energy decomposition (eV):
siesta: Ebs     =     -4671.893250
siesta: Eions   =     22743.175864
siesta: Ena     =      4239.824363
siesta: Ekin    =     10100.735472
siesta: Enl     =     -1604.503196
siesta: DEna    =      -172.330060
siesta: DUscf   =        19.219961
siesta: DUext   =         0.000000
siesta: Exc     =     -4674.591897
siesta: eta*DQ  =         0.000000
siesta: Emadel  =         0.000000
siesta: Emeta   =         0.000000
siesta: Emolmec =         0.000000
siesta: Ekinion =         0.000000
siesta: Eharris =    -14834.838611
siesta: Etot    =    -14834.821221
siesta: FreeEng =    -14834.846492

siesta: Final energy (eV):
siesta:  Band Struct. =   -4671.893250
siesta:       Kinetic =   10100.735472
siesta:       Hartree =   28260.593352
siesta:    Ext. field =       0.000000
siesta:   Exch.-corr. =   -4674.591897
siesta:  Ion-electron =  -66012.123454
siesta:       Ion-ion =   17490.565305
siesta:       Ekinion =       0.000000
siesta:         Total =  -14834.821221

siesta: Atomic forces (eV/Ang):
siesta:      1   -0.014042    0.581043    0.000000
siesta:      2   -0.523157   -0.324585    0.000000
siesta:      3    0.545035   -0.332628    0.000000
siesta:      4    0.542350   -0.333165    0.000000
siesta:      5    0.542475   -0.327555    0.000000
siesta:      6    0.007419    0.576168    0.000000
siesta:      7   -0.026813    0.580018    0.000000
siesta:      8   -0.537943   -0.327915    0.000000
siesta:      9    0.541825   -0.332652    0.000000
siesta:     10   -0.524606   -0.332094    0.000000
siesta:     11    0.510165   -0.325235    0.000000
siesta:     12   -0.529155   -0.332801    0.000000
siesta:     13   -0.006337    0.595491    0.000000
siesta:     14    0.010570    0.597227    0.000000
siesta:     15   -0.537763   -0.325931    0.000000
siesta:     16    0.543981   -0.333014    0.000000
siesta:     17   -0.558650   -0.322139    0.000000
siesta:     18   -0.007412    0.593254    0.000000
siesta:     19   -0.512779   -0.329569    0.000000
siesta:     20    0.510078   -0.324748    0.000000
siesta:     21    0.003960    0.592555    0.000000
siesta:     22    0.541284   -0.331862    0.000000
siesta:     23   -0.020399    0.596129    0.000000
siesta:     24   -0.527933   -0.330153    0.000000
siesta:     25   -0.528508   -0.327477    0.000000
siesta:     26    0.005141    0.594584    0.000000
siesta:     27    0.506319   -0.323288    0.000000
siesta:     28   -0.196718    0.111396    0.000000
siesta:     29    0.030518    0.019908    0.000000
siesta:     30    0.009598   -0.008249    0.000000
siesta:     31    0.204534    0.112662    0.000000
siesta:     32    0.011785   -0.213594    0.000000
siesta:     33    0.008521   -0.013624    0.000000
siesta:     34    0.193643    0.112937    0.000000
siesta:     35    0.011562   -0.212488    0.000000
siesta:     36   -0.001667   -0.189709    0.000000
siesta:     37    0.009859   -0.030290    0.000000
siesta:     38    0.182894    0.111502    0.000000
siesta:     39   -0.193870    0.115476    0.000000
siesta:     40    0.014412   -0.028495    0.000000
siesta:     41    0.217135    0.109230    0.000000
siesta:     42   -0.198580    0.111497    0.000000
siesta:     43    0.011198   -0.029824    0.000000
siesta:     44    0.194905    0.111524    0.000000
siesta:     45   -0.002413    0.008350    0.000000
siesta:     46    0.002426   -0.209332    0.000000
siesta:     47    0.024458    0.003325    0.000000
siesta:     48   -0.003057   -0.210671    0.000000
siesta:     49    0.001958    0.007643    0.000000
siesta:     50   -0.195211    0.118599    0.000000
siesta:     51    0.005387   -0.011959    0.000000
siesta:     52    0.183885    0.115857    0.000000
siesta:     53   -0.156113    0.106044    0.000000
siesta:     54   -0.021509   -0.003820    0.000000
siesta:     55    0.178622    0.115389    0.000000
siesta:     56    0.000182    0.008876    0.000000
siesta:     57    0.025723   -0.212380    0.000000
siesta:     58   -0.005136    0.006261    0.000000
siesta:     59   -0.195564    0.120340    0.000000
siesta:     60    0.012096   -0.010607    0.000000
siesta:     61    0.216032    0.110201    0.000000
siesta:     62    0.032894    0.019221    0.000000
siesta:     63   -0.006110   -0.192373    0.000000
siesta:     64   -0.194014    0.118984    0.000000
siesta:     65    0.002311   -0.208932    0.000000
siesta:     66   -0.197745    0.119153    0.000000
siesta:     67    0.000299    0.008207    0.000000
siesta:     68    0.005743   -0.011267    0.000000
siesta:     69    0.183430    0.115726    0.000000
siesta:     70   -0.002269    0.023993    0.000000
siesta:     71   -0.194591    0.118036    0.000000
siesta:     72   -0.017195   -0.188371    0.000000
siesta: ----------------------------------------
siesta:    Tot    0.149350   -0.435989    0.000000

siesta: Stress tensor (static) (eV/Ang**3):
siesta:     0.044791   -0.000139    0.000000
siesta:    -0.000139    0.044904    0.000000
siesta:     0.000000    0.000000    0.000239

siesta: Cell volume =       1893.226895 Ang**3

siesta: Pressure (static):
siesta:                Solid            Molecule  Units
siesta:          -0.00032650         -0.00033031  Ry/Bohr**3
siesta:          -0.02997767         -0.03032767  eV/Ang**3
siesta:         -48.03004094        -48.59081453  kBar
(Free)E+ p_basis*V_orbitals  =      -14807.968891
(Free)Eharris+ p_basis*V_orbitals  =      -14807.985985

siesta: Electric dipole (a.u.)  =    0.000000    0.000000    0.000000
siesta: Electric dipole (Debye) =    0.000000    0.000000    0.000000

* Maximum dynamic memory allocated : Node    0 =   190 MB
* Maximum dynamic memory allocated : Node    1 =    71 MB
* Maximum dynamic memory allocated : Node    2 =    73 MB
* Maximum dynamic memory allocated : Node    3 =   180 MB
* Maximum dynamic memory allocated : Node    4 =   190 MB
* Maximum dynamic memory allocated : Node    5 =    71 MB
* Maximum dynamic memory allocated : Node    6 =    73 MB
* Maximum dynamic memory allocated : Node    7 =   176 MB

* Maximum memory occured during matrixMtoO                    

timer: CPU execution times:
timer:  Routine       Calls   Time/call    Tot.time        %
timer:  siesta            1  134425.042  134425.042   100.00
timer:  Setup             1       3.056       3.056     0.00
timer:  bands             1       0.010       0.010     0.00
timer:  writewave         1       0.017       0.017     0.00
timer:  KSV_init          1       0.003       0.003     0.00
timer:  IterMD            1  134413.847  134413.847    99.99
timer:  hsparse           1       0.252       0.252     0.00
timer:  overlap           1       7.652       7.652     0.01
timer:  IterSCF          21    6393.758  134268.914    99.88
timer:  kinefsm           2       3.912       7.824     0.01
timer:  nlefsm            2      17.716      35.432     0.03
timer:  DHSCF            22      76.154    1675.385     1.25
timer:  DHSCF1            1       0.764       0.764     0.00
timer:  DHSCF2            1      31.148      31.148     0.02
timer:  REORD           178       0.010       1.781     0.00
timer:  POISON           23       2.244      51.613     0.04
timer:  DHSCF3           22      73.408    1614.978     1.20
timer:  rhoofd           22      13.873     305.217     0.23
timer:  cellXC           22       3.533      77.736     0.06
timer:  vmat             22      36.773     809.015     0.60
timer:  MolMec            2       0.000       0.000     0.00
timer:  diagon           21    6316.104  132638.184    98.67
timer:  c-eigval       7392       6.693   49477.724    36.81
timer:  c-buildHS      7392       0.113     836.888     0.62
timer:  cdiag         14784       6.885  101792.129    75.72
timer:  cdiag1        14784       0.428    6330.871     4.71
timer:  cdiag2        14784       1.908   28211.364    20.99
timer:  cdiag3        14784       3.968   58665.464    43.64
timer:  cdiag4        14784       0.207    3061.868     2.28
timer:  c-eigvec       7392       7.260   53663.261    39.92
timer:  c-buildD       7392       3.982   29436.364    21.90
timer:  DHSCF4            1      27.326      27.326     0.02
timer:  dfscf             1      25.576      25.576     0.02
timer:  overfsm           1       0.359       0.359     0.00
timer:  optical           1       7.119       7.119     0.01
  

elaps: ELAPSED times:
elaps:  Routine       Calls   Time/call    Tot.time        %
elaps:  siesta            1   16821.580   16821.580   100.00
elaps:  Setup             1       0.381       0.381     0.00
elaps:  bands             1       0.001       0.001     0.00
elaps:  writewave         1       0.002       0.002     0.00
elaps:  KSV_init          1       0.000       0.000     0.00
elaps:  IterMD            1   16820.181   16820.181    99.99
elaps:  hsparse           1       0.031       0.031     0.00
elaps:  overlap           1       0.958       0.958     0.01
elaps:  IterSCF          21     800.098   16802.051    99.88
elaps:  kinefsm           2       0.491       0.982     0.01
elaps:  nlefsm            2       2.233       4.466     0.03
elaps:  DHSCF            22       9.654     212.396     1.26
elaps:  DHSCF1            1       0.100       0.100     0.00
elaps:  DHSCF2            1       3.897       3.897     0.02
elaps:  REORD           178       0.001       0.236     0.00
elaps:  POISON           23       0.281       6.462     0.04
elaps:  DHSCF3           22       9.184     202.044     1.20
elaps:  rhoofd           22       3.011      66.232     0.39
elaps:  cellXC           22       0.441       9.709     0.06
elaps:  vmat             22       4.601     101.213     0.60
elaps:  MolMec            2       0.000       0.000     0.00
elaps:  diagon           21     790.405   16598.514    98.67
elaps:  c-eigval       7392       0.837    6190.394    36.80
elaps:  c-buildHS      7392       0.015     114.100     0.68
elaps:  cdiag         14784       0.848   12534.438    74.51
elaps:  cdiag1        14784       0.053     787.263     4.68
elaps:  cdiag2        14784       0.239    3529.624    20.98
elaps:  cdiag3        14784       0.497    7350.241    43.70
elaps:  cdiag4        14784       0.026     381.817     2.27
elaps:  c-eigvec       7392       0.885    6538.923    38.87
elaps:  c-buildD       7392       0.522    3859.649    22.94
elaps:  DHSCF4            1       6.195       6.195     0.04
elaps:  dfscf             1       5.840       5.840     0.03
elaps:  overfsm           1       0.045       0.045     0.00
elaps:  optical           1       0.000       0.000     0.00
  
>> End of run:   5-DEC-2015   8:56:44
