Siesta Version:                                        siesta-3.2-pl-3
Architecture  : x86_64-unknown-linux-gnu--unknown
Compiler flags: mpiifort -g -O2 -fPIC -xSSE4.1 -fp-model source -shared-intel 
PARALLEL version

* Running on    8 nodes in parallel
>> Start of run:   8-DEC-2015  15:00:30

                           ***********************       
                           *  WELCOME TO SIESTA  *       
                           ***********************       

reinit: Reading from standard input
************************** Dump of input data file ****************************
#(1) General system descriptors
SystemName            GRP_doping    # Descriptive name of the system
SystemLabel           GRP_doping    # Short name for naming files
%include STRUCT.fdf
%include KPT.fdf
%include BASIS.fdf
#%include TS.fdf # for transiesta calculation
#(4) DFT, Grid, SCF
XC.functional         GGA           # LDA or GGA (default = LDA)
XC.authors            PBE           # CA (Ceperley-Aldr) = PZ
                                    #    (Perdew-Zunger) - LDA - Default
                                    # PW92 (Perdew-Wang-92) - LDA
                                    # PBE (Perdew-Burke-Ernzerhof) - GGA
MeshCutoff            200.000000    Ry      # Default: 50.0 Ry ~ 0.444 Bohr
                                    #         100.0 Ry ~ 0.314 Bohr
MaxSCFIterations      500           # Default: 50
DM.MixingWeight       0.05          # Default: 0.25
DM.NumberPulay        10            # Default: 0
DM.PulayOnFile        F             # SystemLabel.P1, SystemLabel.P2
DM.Tolerance          1.d-4         # Default: 1.d-4
DM.UseSaveDM          .true.        # because of the bug
SCFMustConverge       .true.
NeglNonOverlapInt     F             # Default: F
#(5) Eigenvalue problem: order-N or diagonalization
SolutionMethod        Diagon        # or Transiesta
ElectronicTemperature 300.0 K       # Default: 300.0 K
#(6) Molecular dynamics and relaxations
#MD.TypeOfRun          CG            # Type of dynamics:
#MD.VariableCell       F
#MD.NumCGsteps         0           # 0 for single-point / 100 for gopt
#MD.MaxCGDispl         0.2 Bohr      # Default: 0.2 Bohr
#MD.MaxForceTol        0.02 eV/Ang   # Default: 0.04 eV/Ang
#MD.MaxStressTol       1.0 GPa       # Default: 1.0 GPa
# Geometry Constraints
#%block GeometryConstraints
#	position from 1 to 44
#%endblock GeometryConstraints
BandLinesScale   pi/a
%block BandLines
 1   0.00000000  0.00000000  0.00000000
50   0.00000000  0.07809418  0.00000000
50   0.04509075  0.07809242  0.00000000
20   0.00000000  0.00000000  0.00000000
%endblock BandLines
************************** End of input data file *****************************

reinit: -----------------------------------------------------------------------
reinit: System Name: GRP_doping
reinit: -----------------------------------------------------------------------
reinit: System Label: GRP_doping                                                  
reinit: -----------------------------------------------------------------------

initatom: Reading input for the pseudopotentials and atomic orbitals ----------
 Species number:            1  Label: C Atomic number:           6
 Species number:            2  Label: B Atomic number:           5
Ground state valence configuration:   2s02  2p02
Reading pseudopotential information in formatted form from C.psf

Valence configuration for pseudopotential generation:
2s( 2.00) rc: 1.54
2p( 2.00) rc: 1.54
3d( 0.00) rc: 1.54
4f( 0.00) rc: 1.54
Ground state valence configuration:   2s02  2p01
Reading pseudopotential information in formatted form from B.psf

Valence configuration for pseudopotential generation:
2s( 2.00) rc: 1.74
2p( 1.00) rc: 1.74
3d( 0.00) rc: 1.74
4f( 0.00) rc: 1.74
For C, standard SIESTA heuristics set lmxkb to 3
 (one more than the basis l, including polarization orbitals).
Use PS.lmax or PS.KBprojectors blocks to override.
For B, standard SIESTA heuristics set lmxkb to 3
 (one more than the basis l, including polarization orbitals).
Use PS.lmax or PS.KBprojectors blocks to override.

<basis_specs>
===============================================================================
C                    Z=   6    Mass=  12.010        Charge= 0.17977+309
Lmxo=1 Lmxkb= 3    BasisType=split      Semic=F
L=0  Nsemic=0  Cnfigmx=2
          n=1  nzeta=2  polorb=0
            splnorm:   0.15000    
               vcte:    0.0000    
               rinn:    0.0000    
                rcs:    0.0000      0.0000    
            lambdas:    1.0000      1.0000    
L=1  Nsemic=0  Cnfigmx=2
          n=1  nzeta=2  polorb=1
            splnorm:   0.15000    
               vcte:    0.0000    
               rinn:    0.0000    
                rcs:    0.0000      0.0000    
            lambdas:    1.0000      1.0000    
-------------------------------------------------------------------------------
L=0  Nkbl=1  erefs: 0.17977+309
L=1  Nkbl=1  erefs: 0.17977+309
L=2  Nkbl=1  erefs: 0.17977+309
L=3  Nkbl=1  erefs: 0.17977+309
===============================================================================
</basis_specs>

atom: Called for C                     (Z =   6)

read_vps: Pseudopotential generation method:
read_vps: ATM3      Troullier-Martins                       
Total valence charge:    4.00000

read_vps: Pseudopotential includes a core correction:
read_vps: Pseudo-core for xc-correction

xc_check: Exchange-correlation functional:
xc_check: GGA Perdew, Burke & Ernzerhof 1996
V l=0 = -2*Zval/r beyond r=  1.5227
V l=1 = -2*Zval/r beyond r=  1.5227
V l=2 = -2*Zval/r beyond r=  1.5227
V l=3 = -2*Zval/r beyond r=  1.5038
All V_l potentials equal beyond r=  1.5227
This should be close to max(r_c) in ps generation
All pots = -2*Zval/r beyond r=  1.5227

VLOCAL1: 99.0% of the norm of Vloc inside     18.722 Ry
VLOCAL1: 99.9% of the norm of Vloc inside     42.668 Ry
atom: Maximum radius for 4*pi*r*r*local-pseudopot. charge    1.83678
atom: Maximum radius for r*vlocal+2*Zval:    1.58088
GHOST: No ghost state for L =  0
GHOST: No ghost state for L =  1
GHOST: No ghost state for L =  2
GHOST: No ghost state for L =  3

KBgen: Kleinman-Bylander projectors: 
   l= 0   rc=  1.704034   el= -1.009801   Ekb=  5.335044   kbcos=  0.316824
   l= 1   rc=  1.704034   el= -0.388707   Ekb= -3.785862   kbcos= -0.366464
   l= 2   rc=  1.791422   el=  0.001971   Ekb= -0.970471   kbcos= -0.009212
   l= 3   rc=  1.859892   el=  0.003065   Ekb= -0.399525   kbcos= -0.001223

KBgen: Total number of  Kleinman-Bylander projectors:   16
atom: -------------------------------------------------------------------------

atom: SANKEY-TYPE ORBITALS:
atom: Selected multiple-zeta basis: split     

SPLIT: Orbitals with angular momentum L= 0

SPLIT: Basis orbitals for state 2s

SPLIT: PAO cut-off radius determined from an
SPLIT: energy shift=  0.007350 Ry

   izeta = 1
                 lambda =    1.000000
                     rc =    4.632753
                 energy =   -1.002270
                kinetic =    0.855760
    potential(screened) =   -1.858031
       potential(ionic) =   -5.417575

   izeta = 2
                 rmatch =    3.431921
              splitnorm =    0.150000
                 energy =   -0.867111
                kinetic =    1.300804
    potential(screened) =   -2.167915
       potential(ionic) =   -5.962684

SPLIT: Orbitals with angular momentum L= 1

SPLIT: Basis orbitals for state 2p

SPLIT: PAO cut-off radius determined from an
SPLIT: energy shift=  0.007350 Ry

   izeta = 1
                 lambda =    1.000000
                     rc =    5.658549
                 energy =   -0.381140
                kinetic =    2.399701
    potential(screened) =   -2.780841
       potential(ionic) =   -6.206085

   izeta = 2
                 rmatch =    3.653288
              splitnorm =    0.150000
                 energy =   -0.249149
                kinetic =    3.542762
    potential(screened) =   -3.791911
       potential(ionic) =   -7.581078

POLgen: Perturbative polarization orbital with L=  2

POLgen: Polarization orbital for state 2p

   izeta = 1
                     rc =    5.658549
                 energy =    1.109913
                kinetic =    2.304789
    potential(screened) =   -1.194876
       potential(ionic) =   -4.013592
atom: Total number of Sankey-type orbitals: 13

atm_pop: Valence configuration (for local Pseudopot. screening):
 2s( 2.00)                                                            
 2p( 2.00)                                                            
Vna: chval, zval:    4.00000   4.00000

Vna:  Cut-off radius for the neutral-atom potential:   5.658549
comcore: Pseudo-core radius Rcore=  1.791422

atom: _________________________________________________________________________

<basis_specs>
===============================================================================
B                    Z=   5    Mass=  10.810        Charge= 0.17977+309
Lmxo=1 Lmxkb= 3    BasisType=split      Semic=F
L=0  Nsemic=0  Cnfigmx=2
          n=1  nzeta=2  polorb=0
            splnorm:   0.15000    
               vcte:    0.0000    
               rinn:    0.0000    
                rcs:    0.0000      0.0000    
            lambdas:    1.0000      1.0000    
L=1  Nsemic=0  Cnfigmx=2
          n=1  nzeta=2  polorb=1
            splnorm:   0.15000    
               vcte:    0.0000    
               rinn:    0.0000    
                rcs:    0.0000      0.0000    
            lambdas:    1.0000      1.0000    
-------------------------------------------------------------------------------
L=0  Nkbl=1  erefs: 0.17977+309
L=1  Nkbl=1  erefs: 0.17977+309
L=2  Nkbl=1  erefs: 0.17977+309
L=3  Nkbl=1  erefs: 0.17977+309
===============================================================================
</basis_specs>

atom: Called for B                     (Z =   5)

read_vps: Pseudopotential generation method:
read_vps: ATM3      Troullier-Martins                       
Total valence charge:    3.00000

read_vps: Pseudopotential includes a core correction:
read_vps: Pseudo-core for xc-correction

xc_check: Exchange-correlation functional:
xc_check: GGA Perdew, Burke & Ernzerhof 1996
V l=0 = -2*Zval/r beyond r=  1.7165
V l=1 = -2*Zval/r beyond r=  1.7165
V l=2 = -2*Zval/r beyond r=  1.7165
V l=3 = -2*Zval/r beyond r=  1.6951
All V_l potentials equal beyond r=  1.7165
This should be close to max(r_c) in ps generation
All pots = -2*Zval/r beyond r=  1.7165

VLOCAL1: 99.0% of the norm of Vloc inside     14.733 Ry
VLOCAL1: 99.9% of the norm of Vloc inside     33.577 Ry
atom: Maximum radius for 4*pi*r*r*local-pseudopot. charge    2.04484
atom: Maximum radius for r*vlocal+2*Zval:    1.75994
GHOST: No ghost state for L =  0
GHOST: No ghost state for L =  1
GHOST: No ghost state for L =  2
GHOST: No ghost state for L =  3

KBgen: Kleinman-Bylander projectors: 
   l= 0   rc=  1.897051   el= -0.693730   Ekb=  4.595746   kbcos=  0.286105
   l= 1   rc=  1.920920   el= -0.265236   Ekb= -2.350715   kbcos= -0.315747
   l= 2   rc=  2.044840   el=  0.002055   Ekb= -0.690767   kbcos= -0.013822
   l= 3   rc=  2.149707   el=  0.003188   Ekb= -0.315358   kbcos= -0.002055

KBgen: Total number of  Kleinman-Bylander projectors:   16
atom: -------------------------------------------------------------------------

atom: SANKEY-TYPE ORBITALS:
atom: Selected multiple-zeta basis: split     

SPLIT: Orbitals with angular momentum L= 0

SPLIT: Basis orbitals for state 2s

SPLIT: PAO cut-off radius determined from an
SPLIT: energy shift=  0.007350 Ry

   izeta = 1
                 lambda =    1.000000
                     rc =    5.422032
                 energy =   -0.686029
                kinetic =    0.576707
    potential(screened) =   -1.262736
       potential(ionic) =   -3.271094

   izeta = 2
                 rmatch =    4.222573
              splitnorm =    0.150000
                 energy =   -0.602132
                kinetic =    0.858975
    potential(screened) =   -1.461107
       potential(ionic) =   -3.582536

SPLIT: Orbitals with angular momentum L= 1

SPLIT: Basis orbitals for state 2p

SPLIT: PAO cut-off radius determined from an
SPLIT: energy shift=  0.007350 Ry

   izeta = 1
                 lambda =    1.000000
                     rc =    6.790259
                 energy =   -0.258578
                kinetic =    1.481412
    potential(screened) =   -1.739989
       potential(ionic) =   -3.657461

   izeta = 2
                 rmatch =    4.608740
              splitnorm =    0.150000
                 energy =   -0.173757
                kinetic =    2.186690
    potential(screened) =   -2.360447
       potential(ionic) =   -4.464260

POLgen: Perturbative polarization orbital with L=  2

POLgen: Polarization orbital for state 2p

   izeta = 1
                     rc =    6.790259
                 energy =    0.684082
                kinetic =    1.471481
    potential(screened) =   -0.787399
       potential(ionic) =   -2.406985
atom: Total number of Sankey-type orbitals: 13

atm_pop: Valence configuration (for local Pseudopot. screening):
 2s( 2.00)                                                            
 2p( 1.00)                                                            
Vna: chval, zval:    3.00000   3.00000

Vna:  Cut-off radius for the neutral-atom potential:   6.790259
comcore: Pseudo-core radius Rcore=  2.122997

atom: _________________________________________________________________________

prinput: Basis input ----------------------------------------------------------

PAO.BasisType split     

%block ChemicalSpeciesLabel
    1    6 C                       # Species index, atomic number, species label
    2    5 B                       # Species index, atomic number, species label
%endblock ChemicalSpeciesLabel

%block PAO.Basis                 # Define Basis set
C                     2                    # Species label, number of l-shells
 n=2   0   2                         # n, l, Nzeta 
   4.633      3.432   
   1.000      1.000   
 n=2   1   2 P   1                   # n, l, Nzeta, Polarization, NzetaPol
   5.659      3.653   
   1.000      1.000   
B                     2                    # Species label, number of l-shells
 n=2   0   2                         # n, l, Nzeta 
   5.422      4.223   
   1.000      1.000   
 n=2   1   2 P   1                   # n, l, Nzeta, Polarization, NzetaPol
   6.790      4.609   
   1.000      1.000   
%endblock PAO.Basis

prinput: ----------------------------------------------------------------------

coor:   Atomic-coordinates input format  =     Cartesian coordinates
coor:                                          (in Angstroms)

siesta: Atomic coordinates (Bohr) and species
siesta:      2.23554   1.32097   0.00000  1        1
siesta:      4.56367   2.66461   0.00000  1        2
siesta:     32.50328  21.48508   0.00000  1        3
siesta:     34.83141  22.82873   0.00000  1        4
siesta:     34.83116  17.45226   0.00000  1        5
siesta:     37.15930  18.79590   0.00000  1        6
siesta:     32.50291  13.41944   0.00000  1        7
siesta:     34.83104  14.76308   0.00000  1        8
siesta:     30.17465   9.38661   0.00000  1        9
siesta:     27.84639   5.35379   0.00000  1       10
siesta:     30.17453   6.69743   0.00000  1       11
siesta:     27.84714  21.48508   0.00000  1       12
siesta:     30.17527  22.82873   0.00000  1       13
siesta:      6.89168   1.32097   0.00000  1       14
siesta:      9.21981   2.66461   0.00000  1       15
siesta:     11.54782   1.32097   0.00000  1       16
siesta:     13.87595   2.66461   0.00000  1       17
siesta:     16.20396   1.32097   0.00000  1       18
siesta:     18.53210   2.66461   0.00000  1       19
siesta:     20.86199   1.32097   0.00000  1       20
siesta:     23.19013   2.66461   0.00000  1       21
siesta:     25.51813   1.32097   0.00000  1       22
siesta:     27.84627   2.66461   0.00000  1       23
siesta:      4.56380   5.35379   0.00000  1       24
siesta:      6.89193   6.69743   0.00000  1       25
siesta:      9.21994   5.35379   0.00000  1       26
siesta:     11.54807   6.69743   0.00000  1       27
siesta:     13.87608   5.35379   0.00000  1       28
siesta:     16.20421   6.69743   0.00000  1       29
siesta:     18.53411   5.35379   0.00000  1       30
siesta:     20.86224   6.69743   0.00000  1       31
siesta:     23.19025   5.35379   0.00000  1       32
siesta:     25.51838   6.69743   0.00000  1       33
siesta:      6.89205   9.38661   0.00000  1       34
siesta:     11.54820   9.38661   0.00000  1       35
siesta:     16.20434   9.38661   0.00000  1       36
siesta:     20.86237   9.38661   0.00000  1       37
siesta:      9.22031  13.41944   0.00000  1       38
siesta:     11.54845  14.76308   0.00000  1       39
siesta:     13.87645  13.41944   0.00000  1       40
siesta:     16.20459  14.76308   0.00000  1       41
siesta:     18.53448  13.41944   0.00000  1       42
siesta:     20.86262  14.76308   0.00000  1       43
siesta:     11.54857  17.45226   0.00000  1       44
siesta:     13.87670  18.79590   0.00000  1       45
siesta:     16.20471  17.45226   0.00000  1       46
siesta:     18.53284  18.79590   0.00000  1       47
siesta:     13.87683  21.48508   0.00000  1       48
siesta:     16.20496  22.82873   0.00000  1       49
siesta:     18.53486  21.48508   0.00000  1       50
siesta:     20.86299  22.82873   0.00000  1       51
siesta:     25.51851   9.38661   0.00000  1       52
siesta:     23.19063  13.41944   0.00000  1       53
siesta:     25.51876  14.76308   0.00000  1       54
siesta:     20.86274  17.45226   0.00000  1       55
siesta:     23.19088  18.79590   0.00000  1       56
siesta:     27.84677  13.41944   0.00000  1       57
siesta:     30.17490  14.76308   0.00000  1       58
siesta:     25.51888  17.45226   0.00000  1       59
siesta:     27.84702  18.79590   0.00000  1       60
siesta:     23.19100  21.48508   0.00000  1       61
siesta:     25.51913  22.82873   0.00000  1       62
siesta:     30.17503  17.45226   0.00000  1       63
siesta:     32.50316  18.79590   0.00000  1       64
siesta:     37.16131  21.48508   0.00000  1       65
siesta:     39.48945  22.82873   0.00000  1       66
siesta:     32.50278  10.73026   0.00000  2       67
siesta:      9.22019  10.73026   0.00000  2       68
siesta:     13.87633  10.73026   0.00000  2       69
siesta:     18.53247  10.73026   0.00000  2       70
siesta:     23.19050  10.73026   0.00000  2       71
siesta:     27.84664  10.73026   0.00000  2       72

siesta: System type = slab      

initatomlists: Number of atoms, orbitals, and projectors:     72   936  1152

siesta: ******************** Simulation parameters ****************************
siesta:
siesta: The following are some of the parameters of the simulation.
siesta: A complete list of the parameters used, including default values,
siesta: can be found in file out.fdf
siesta:
redata: Non-Collinear-spin run           =     F
redata: SpinPolarized (Up/Down) run      =     F
redata: Number of spin components        =     1
redata: Long output                      =     F
redata: Number of Atomic Species         =        2
redata: Charge density info will appear in .RHO file
redata: Write Mulliken Pop.              =     NO
redata: Mesh Cutoff                      =   200.0000  Ry
redata: Net charge of the system         =     0.0000 |e|
redata: Max. number of SCF Iter          =      500
redata: SCF convergence failure will abort job
redata: Performing Pulay mixing using    =    10 iterations
redata: Mix DM in first SCF step ?       =     F
redata: Write Pulay info on disk?        =     F
redata: Discard 1st Pulay DM after  kick =     F
redata: New DM Mixing Weight             =     0.0500
redata: New DM Occupancy tolerance       = 0.000000000001
redata: No kicks to SCF
redata: DM Mixing Weight for Kicks       =     0.5000
redata: DM Tolerance for SCF             =     0.000100
redata: Require Energy convergence for SCF =     F
redata: DM Energy tolerance for SCF      =     0.000100 eV
redata: Require Harris convergence for SCF =     F
redata: DM Harris energy tolerance for SCF =     0.000100 eV
redata: Using Saved Data (generic)   =     F
redata: Use continuation files for DM    =     T
redata: Neglect nonoverlap interactions  =     F
redata: Method of Calculation            =     Diagonalization
redata: Divide and Conquer               =     T
redata: Electronic Temperature           =     0.0019  Ry
redata: Fix the spin of the system       =     F
redata: Dynamics option                  =     Verlet MD run
redata: Initial MD time step             =        1
redata:   Final MD time step             =        1
redata: Length of MD time step           =     1.0000  fs
redata: Initial Temperature of MD run    =     0.0000  K
redata: Perform a MD quench              =     F
redata: ***********************************************************************
Total number of electrons:   282.000000
Total ionic charge:   282.000000

* ProcessorY, Blocksize:    2  24

k-point displ. along   1 input, could be:     0.00    0.50
k-point displ. along   2 input, could be:     0.00    0.50
 Kpoints in:          364 . Kpoints trimmed:          352

siesta: k-grid: Number of k-points =   352
siesta: k-grid: Cutoff (effective) =     5.000 Ang
siesta: k-grid: Supercell and displacements
siesta: k-grid:   26   0   0      0.000
siesta: k-grid:    0  26   0      0.000
siesta: k-grid:    0   0   1      0.000
Naive supercell factors:     2    2    2

superc: Internal auxiliary supercell:     2 x     2 x     2  =       8
superc: Number of atoms, orbitals, and projectors:    576   7488   9216

* Maximum dynamic memory allocated =     6 MB

siesta:                 ==============================
                            Begin MD step =      1
                        ==============================

superc: Internal auxiliary supercell:     2 x     2 x     2  =       8
superc: Number of atoms, orbitals, and projectors:    576   7488   9216

outcell: Unit cell vectors (Ang):
       14.785000    0.000000    0.000000
        7.393000   12.805052    0.000000
        0.000000    0.000000   10.000000

outcell: Cell vector modules (Ang)   :   14.785000   14.786000   10.000000
outcell: Cell angles (23,13,12) (deg):     90.0000     90.0000     60.0000
outcell: Cell volume (Ang**3)        :   1893.2269
New_DM. Step:     1
Initializing Density Matrix...

iodm: Reading Density Matrix from files

InitMesh: MESH =   120 x   120 x    90 =     1296000
InitMesh: Mesh cutoff (required, used) =   200.000   223.865 Ry

* Maximum dynamic memory allocated =   205 MB

stepf: Fermi-Dirac step function

siesta: Program's energy decomposition (eV):
siesta: Ebs     =     -3781.232268
siesta: Eions   =     17634.670804
siesta: Ena     =      3838.471651
siesta: Ekin    =      7546.889655
siesta: Enl     =      -725.558712
siesta: DEna    =      -321.028205
siesta: DUscf   =        32.112164
siesta: DUext   =         0.000000
siesta: Exc     =     -4061.331528
siesta: eta*DQ  =         0.000000
siesta: Emadel  =         0.000000
siesta: Emeta   =         0.000000
siesta: Emolmec =         0.000000
siesta: Ekinion =         0.000000
siesta: Eharris =    -11325.112051
siesta: Etot    =    -11325.115779
siesta: FreeEng =    -11325.115779

siesta: iscf   Eharris(eV)      E_KS(eV)   FreeEng(eV)   dDmax  Ef(eV)
siesta:    1   -11325.1121   -11325.1158   -11325.1158  0.0001 -5.5181
timer: Routine,Calls,Time,% = IterSCF        1    6732.504  99.82
elaps: Routine,Calls,Wall,% = IterSCF        1     842.565  99.82

siesta: E_KS(eV) =           -11325.1121

siesta: E_KS - E_eggbox =    -11325.1121

siesta: Atomic forces (eV/Ang):
----------------------------------------
   Tot    0.195914   -0.296249    0.000000
----------------------------------------
   Max    4.080567
   Res    0.983046    sqrt( Sum f_i^2 / 3N )
----------------------------------------
   Max    4.080567    constrained

Stress-tensor-Voigt (kbar):      -84.13      -95.91       -0.17       -0.58        0.00        0.00
(Free)E + p*V (eV/cell)   -11254.1695
Target enthalpy (eV/cell)   -11325.1521

siesta: Stress tensor (static) (eV/Ang**3):
        -0.052508   -0.000365    0.000000
        -0.000365   -0.059862    0.000000
         0.000000    0.000000   -0.000109

siesta: Pressure (static):         60.07089917  kBar

siesta: Stress tensor (total) (eV/Ang**3):
        -0.052508   -0.000365    0.000000
        -0.000365   -0.059862    0.000000
         0.000000    0.000000   -0.000109

siesta: Pressure (total):         60.07089917  kBar

siesta: Temp_ion =       0.000 K

* Maximum dynamic memory allocated =   219 MB
Computing bands...

siesta: Program's energy decomposition (eV):
siesta: Ebs     =     -3781.232268
siesta: Eions   =     17634.670804
siesta: Ena     =      3838.471651
siesta: Ekin    =      7546.907176
siesta: Enl     =      -725.563325
siesta: DEna    =      -321.034817
siesta: DUscf   =        32.111635
siesta: DUext   =         0.000000
siesta: Exc     =     -4061.333565
siesta: eta*DQ  =         0.000000
siesta: Emadel  =         0.000000
siesta: Emeta   =         0.000000
siesta: Emolmec =         0.000000
siesta: Ekinion =         0.000000
siesta: Eharris =    -11325.112051
siesta: Etot    =    -11325.112050
siesta: FreeEng =    -11325.152074

siesta: Final energy (eV):
siesta:  Band Struct. =   -3781.232268
siesta:       Kinetic =    7546.907176
siesta:       Hartree =   22172.017374
siesta:    Ext. field =       0.000000
siesta:   Exch.-corr. =   -4061.333565
siesta:  Ion-electron =  -51252.580543
siesta:       Ion-ion =   14269.877509
siesta:       Ekinion =       0.000000
siesta:         Total =  -11325.112050

siesta: Atomic forces (eV/Ang):
siesta:      1   -0.014749   -0.172483    0.000000
siesta:      2   -0.002280    0.181900    0.000000
siesta:      3    0.010114    0.012151    0.000000
siesta:      4    0.035503    0.087895    0.000000
siesta:      5    0.006271    0.269097    0.000000
siesta:      6    0.023372    0.076715    0.000000
siesta:      7    0.008984    3.994941    0.000000
siesta:      8    0.012381    0.463755    0.000000
siesta:      9    0.008655   -4.080567    0.000000
siesta:     10    0.007404   -0.697859    0.000000
siesta:     11    0.010369    0.714872    0.000000
siesta:     12    0.007260    0.010094    0.000000
siesta:     13   -0.004462    0.093555    0.000000
siesta:     14    0.009788   -0.173746    0.000000
siesta:     15   -0.002143    0.182944    0.000000
siesta:     16    0.010902   -0.173906    0.000000
siesta:     17   -0.001895    0.182605    0.000000
siesta:     18    0.013204   -0.172429    0.000000
siesta:     19    0.037859    0.177305    0.000000
siesta:     20   -0.029534   -0.169016    0.000000
siesta:     21   -0.004842    0.181589    0.000000
siesta:     22    0.012470   -0.172916    0.000000
siesta:     23    0.010430    0.180017    0.000000
siesta:     24   -0.006860   -0.692326    0.000000
siesta:     25   -0.005200    0.720092    0.000000
siesta:     26    0.007158   -0.697365    0.000000
siesta:     27   -0.003030    0.719921    0.000000
siesta:     28    0.010641   -0.697928    0.000000
siesta:     29    0.026187    0.712170    0.000000
siesta:     30   -0.032874   -0.688743    0.000000
siesta:     31   -0.006443    0.718680    0.000000
siesta:     32    0.007661   -0.697882    0.000000
siesta:     33   -0.003623    0.718958    0.000000
siesta:     34   -0.009038   -4.070902    0.000000
siesta:     35    0.007145   -4.078819    0.000000
siesta:     36    0.010071   -4.079851    0.000000
siesta:     37   -0.027007   -4.063002    0.000000
siesta:     38   -0.005670    3.998695    0.000000
siesta:     39   -0.001842    0.470418    0.000000
siesta:     40    0.011805    3.994781    0.000000
siesta:     41    0.027006    0.460167    0.000000
siesta:     42   -0.027303    4.002966    0.000000
siesta:     43   -0.004130    0.469203    0.000000
siesta:     44   -0.006657    0.270324    0.000000
siesta:     45   -0.003706    0.077892    0.000000
siesta:     46    0.007970    0.267580    0.000000
siesta:     47    0.039118    0.070368    0.000000
siesta:     48    0.025955    0.006172    0.000000
siesta:     49    0.036463    0.087266    0.000000
siesta:     50   -0.032345    0.015132    0.000000
siesta:     51   -0.007901    0.090917    0.000000
siesta:     52    0.005700   -4.078535    0.000000
siesta:     53    0.007385    3.992578    0.000000
siesta:     54   -0.000727    0.468811    0.000000
siesta:     55   -0.023695    0.275718    0.000000
siesta:     56   -0.006354    0.078531    0.000000
siesta:     57    0.006802    3.994255    0.000000
siesta:     58   -0.000842    0.468840    0.000000
siesta:     59    0.006089    0.266858    0.000000
siesta:     60   -0.002123    0.077819    0.000000
siesta:     61    0.007021    0.009973    0.000000
siesta:     62   -0.005292    0.092969    0.000000
siesta:     63    0.005893    0.267840    0.000000
siesta:     64   -0.001306    0.077938    0.000000
siesta:     65   -0.034188    0.016003    0.000000
siesta:     66   -0.024179    0.096991    0.000000
siesta:     67    0.016773   -0.921730    0.000000
siesta:     68    0.000235   -0.912962    0.000000
siesta:     69    0.000576   -0.913641    0.000000
siesta:     70    0.039762   -0.928622    0.000000
siesta:     71   -0.001158   -0.913585    0.000000
siesta:     72    0.000926   -0.913697    0.000000
siesta: ----------------------------------------
siesta:    Tot    0.195914   -0.296249    0.000000

siesta: Stress tensor (static) (eV/Ang**3):
siesta:    -0.052508   -0.000365    0.000000
siesta:    -0.000365   -0.059862    0.000000
siesta:     0.000000    0.000000   -0.000109

siesta: Cell volume =       1893.226895 Ang**3

siesta: Pressure (static):
siesta:                Solid            Molecule  Units
siesta:           0.00040835          0.00026874  Ry/Bohr**3
siesta:           0.03749290          0.02467505  eV/Ang**3
siesta:          60.07089917         39.53421125  kBar
(Free)E+ p_basis*V_orbitals  =      -11292.518735
(Free)Eharris+ p_basis*V_orbitals  =      -11292.515007

siesta: Electric dipole (a.u.)  =    0.000000    0.000000    0.000000
siesta: Electric dipole (Debye) =    0.000000    0.000000    0.000000

* Maximum dynamic memory allocated : Node    0 =   219 MB
* Maximum dynamic memory allocated : Node    1 =    79 MB
* Maximum dynamic memory allocated : Node    2 =    82 MB
* Maximum dynamic memory allocated : Node    3 =   207 MB
* Maximum dynamic memory allocated : Node    4 =   217 MB
* Maximum dynamic memory allocated : Node    5 =    78 MB
* Maximum dynamic memory allocated : Node    6 =    81 MB
* Maximum dynamic memory allocated : Node    7 =   199 MB

* Maximum memory occured during matrixMtoO                    

timer: CPU execution times:
timer:  Routine       Calls   Time/call    Tot.time        %
timer:  siesta            1    7754.708    7754.708   100.00
timer:  Setup             1       3.104       3.104     0.04
timer:  bands             3     271.375     814.125    10.50
timer:  writewave         1       0.019       0.019     0.00
timer:  KSV_init          1       0.002       0.002     0.00
timer:  IterMD            1    6928.927    6928.927    89.35
timer:  hsparse           1       0.392       0.392     0.01
timer:  overlap           1       5.608       5.608     0.07
timer:  IterSCF           1    6732.504    6732.504    86.82
timer:  kinefsm           2       2.915       5.829     0.08
timer:  nlefsm            2      19.748      39.496     0.51
timer:  DHSCF             2     142.492     284.985     3.67
timer:  DHSCF1            1       0.995       0.995     0.01
timer:  DHSCF2            1      41.274      41.274     0.53
timer:  REORD            18       0.011       0.191     0.00
timer:  POISON            3       2.285       6.855     0.09
timer:  DHSCF3            2     103.352     206.705     2.67
timer:  rhoofd            2      19.065      38.129     0.49
timer:  cellXC            2       3.527       7.054     0.09
timer:  vmat              2      55.461     110.922     1.43
timer:  MolMec            2       0.000       0.001     0.00
timer:  diagon            1    6552.457    6552.457    84.50
timer:  c-eigval        473       6.733    3184.574    41.07
timer:  c-buildHS       473       0.122      57.560     0.74
timer:  cdiag           825       6.870    5667.666    73.09
timer:  cdiag1          825       0.426     351.661     4.53
timer:  cdiag2          825       1.918    1582.193    20.40
timer:  cdiag3          825       3.979    3282.276    42.33
timer:  cdiag4          825       0.182     150.002     1.93
timer:  c-eigvec        352       7.290    2566.090    33.09
timer:  c-buildD        352       4.581    1612.677    20.80
timer:  DHSCF4            1      35.881      35.881     0.46
timer:  dfscf             1      33.360      33.360     0.43
timer:  overfsm           1       0.416       0.416     0.01
timer:  optical           1       7.480       7.480     0.10
  

elaps: ELAPSED times:
elaps:  Routine       Calls   Time/call    Tot.time        %
elaps:  siesta            1     970.458     970.458   100.00
elaps:  Setup             1       0.387       0.387     0.04
elaps:  bands             3      33.974     101.923    10.50
elaps:  writewave         1       0.002       0.002     0.00
elaps:  KSV_init          1       0.000       0.000     0.00
elaps:  IterMD            1     867.135     867.135    89.35
elaps:  hsparse           1       0.049       0.049     0.01
elaps:  overlap           1       0.527       0.527     0.05
elaps:  IterSCF           1     842.565     842.565    86.82
elaps:  kinefsm           2       0.278       0.555     0.06
elaps:  nlefsm            2       2.481       4.962     0.51
elaps:  DHSCF             2      19.646      39.293     4.05
elaps:  DHSCF1            1       0.129       0.129     0.01
elaps:  DHSCF2            1       5.161       5.161     0.53
elaps:  REORD            18       0.001       0.026     0.00
elaps:  POISON            3       0.287       0.861     0.09
elaps:  DHSCF3            2      12.929      25.857     2.66
elaps:  rhoofd            2       4.139       8.277     0.85
elaps:  cellXC            2       0.440       0.880     0.09
elaps:  vmat              2       6.937      13.875     1.43
elaps:  MolMec            2       0.000       0.000     0.00
elaps:  diagon            1     820.066     820.066    84.50
elaps:  c-eigval        473       0.842     398.466    41.06
elaps:  c-buildHS       473       0.017       7.816     0.81
elaps:  cdiag           825       0.849     700.266    72.16
elaps:  cdiag1          825       0.053      43.901     4.52
elaps:  cdiag2          825       0.240     197.974    20.40
elaps:  cdiag3          825       0.498     411.255    42.38
elaps:  cdiag4          825       0.023      18.857     1.94
elaps:  c-eigvec        352       0.891     313.563    32.31
elaps:  c-buildD        352       0.595     209.475    21.59
elaps:  DHSCF4            1       8.128       8.128     0.84
elaps:  dfscf             1       7.643       7.643     0.79
elaps:  overfsm           1       0.052       0.052     0.01
elaps:  optical           1       0.000       0.000     0.00
  
>> End of run:   8-DEC-2015  15:16:41
