Siesta Version:                                        siesta-3.2-pl-3
Architecture  : x86_64-unknown-linux-gnu--unknown
Compiler flags: mpiifort -g -O2 -fPIC -xSSE4.1 -fp-model source -shared-intel 
PARALLEL version

* Running on    8 nodes in parallel
>> Start of run:  29-NOV-2015  15:01:34

                           ***********************       
                           *  WELCOME TO SIESTA  *       
                           ***********************       

reinit: Reading from standard input
************************** Dump of input data file ****************************
#(1) General system descriptors
SystemName            GRP_doping    # Descriptive name of the system
SystemLabel           GRP_doping    # Short name for naming files
%include STRUCT.fdf
%include KPT.fdf
%include BASIS.fdf
#%include TS.fdf # for transiesta calculation
#(4) DFT, Grid, SCF
XC.functional         GGA           # LDA or GGA (default = LDA)
XC.authors            PBE           # CA (Ceperley-Aldr) = PZ
                                    #    (Perdew-Zunger) - LDA - Default
                                    # PW92 (Perdew-Wang-92) - LDA
                                    # PBE (Perdew-Burke-Ernzerhof) - GGA
MeshCutoff            200.000000    Ry      # Default: 50.0 Ry ~ 0.444 Bohr
                                    #         100.0 Ry ~ 0.314 Bohr
MaxSCFIterations      500           # Default: 50
DM.MixingWeight       0.05          # Default: 0.25
DM.NumberPulay        10            # Default: 0
DM.PulayOnFile        F             # SystemLabel.P1, SystemLabel.P2
DM.Tolerance          1.d-4         # Default: 1.d-4
DM.UseSaveDM          .true.        # because of the bug
SCFMustConverge       .true.
NeglNonOverlapInt     F             # Default: F
#(5) Eigenvalue problem: order-N or diagonalization
SolutionMethod        Diagon        # or Transiesta
ElectronicTemperature 300.0 K       # Default: 300.0 K
#(6) Molecular dynamics and relaxations
#MD.TypeOfRun          CG            # Type of dynamics:
#MD.VariableCell       F
#MD.NumCGsteps         0           # 0 for single-point / 100 for gopt
#MD.MaxCGDispl         0.2 Bohr      # Default: 0.2 Bohr
#MD.MaxForceTol        0.02 eV/Ang   # Default: 0.04 eV/Ang
#MD.MaxStressTol       1.0 GPa       # Default: 1.0 GPa
# Geometry Constraints
#%block GeometryConstraints
#	position from 1 to 44
#%endblock GeometryConstraints
************************** End of input data file *****************************

reinit: -----------------------------------------------------------------------
reinit: System Name: GRP_doping
reinit: -----------------------------------------------------------------------
reinit: System Label: GRP_doping                                                  
reinit: -----------------------------------------------------------------------

initatom: Reading input for the pseudopotentials and atomic orbitals ----------
 Species number:            1  Label: C Atomic number:           6
 Species number:            2  Label: N Atomic number:           7
Ground state valence configuration:   2s02  2p02
Reading pseudopotential information in formatted form from C.psf

Valence configuration for pseudopotential generation:
2s( 2.00) rc: 1.54
2p( 2.00) rc: 1.54
3d( 0.00) rc: 1.54
4f( 0.00) rc: 1.54
Ground state valence configuration:   2s02  2p03
Reading pseudopotential information in formatted form from N.psf

Valence configuration for pseudopotential generation:
2s( 2.00) rc: 1.48
2p( 3.00) rc: 1.48
3d( 0.00) rc: 1.48
4f( 0.00) rc: 1.48
For C, standard SIESTA heuristics set lmxkb to 3
 (one more than the basis l, including polarization orbitals).
Use PS.lmax or PS.KBprojectors blocks to override.
For N, standard SIESTA heuristics set lmxkb to 3
 (one more than the basis l, including polarization orbitals).
Use PS.lmax or PS.KBprojectors blocks to override.

<basis_specs>
===============================================================================
C                    Z=   6    Mass=  12.010        Charge= 0.17977+309
Lmxo=1 Lmxkb= 3    BasisType=split      Semic=F
L=0  Nsemic=0  Cnfigmx=2
          n=1  nzeta=2  polorb=0
            splnorm:   0.15000    
               vcte:    0.0000    
               rinn:    0.0000    
                rcs:    0.0000      0.0000    
            lambdas:    1.0000      1.0000    
L=1  Nsemic=0  Cnfigmx=2
          n=1  nzeta=2  polorb=1
            splnorm:   0.15000    
               vcte:    0.0000    
               rinn:    0.0000    
                rcs:    0.0000      0.0000    
            lambdas:    1.0000      1.0000    
-------------------------------------------------------------------------------
L=0  Nkbl=1  erefs: 0.17977+309
L=1  Nkbl=1  erefs: 0.17977+309
L=2  Nkbl=1  erefs: 0.17977+309
L=3  Nkbl=1  erefs: 0.17977+309
===============================================================================
</basis_specs>

atom: Called for C                     (Z =   6)

read_vps: Pseudopotential generation method:
read_vps: ATM3      Troullier-Martins                       
Total valence charge:    4.00000

read_vps: Pseudopotential includes a core correction:
read_vps: Pseudo-core for xc-correction

xc_check: Exchange-correlation functional:
xc_check: GGA Perdew, Burke & Ernzerhof 1996
V l=0 = -2*Zval/r beyond r=  1.5227
V l=1 = -2*Zval/r beyond r=  1.5227
V l=2 = -2*Zval/r beyond r=  1.5227
V l=3 = -2*Zval/r beyond r=  1.5038
All V_l potentials equal beyond r=  1.5227
This should be close to max(r_c) in ps generation
All pots = -2*Zval/r beyond r=  1.5227

VLOCAL1: 99.0% of the norm of Vloc inside     18.722 Ry
VLOCAL1: 99.9% of the norm of Vloc inside     42.668 Ry
atom: Maximum radius for 4*pi*r*r*local-pseudopot. charge    1.83678
atom: Maximum radius for r*vlocal+2*Zval:    1.58088
GHOST: No ghost state for L =  0
GHOST: No ghost state for L =  1
GHOST: No ghost state for L =  2
GHOST: No ghost state for L =  3

KBgen: Kleinman-Bylander projectors: 
   l= 0   rc=  1.704034   el= -1.009801   Ekb=  5.335044   kbcos=  0.316824
   l= 1   rc=  1.704034   el= -0.388707   Ekb= -3.785862   kbcos= -0.366464
   l= 2   rc=  1.791422   el=  0.001971   Ekb= -0.970471   kbcos= -0.009212
   l= 3   rc=  1.859892   el=  0.003065   Ekb= -0.399525   kbcos= -0.001223

KBgen: Total number of  Kleinman-Bylander projectors:   16
atom: -------------------------------------------------------------------------

atom: SANKEY-TYPE ORBITALS:
atom: Selected multiple-zeta basis: split     

SPLIT: Orbitals with angular momentum L= 0

SPLIT: Basis orbitals for state 2s

SPLIT: PAO cut-off radius determined from an
SPLIT: energy shift=  0.007350 Ry

   izeta = 1
                 lambda =    1.000000
                     rc =    4.632753
                 energy =   -1.002270
                kinetic =    0.855760
    potential(screened) =   -1.858031
       potential(ionic) =   -5.417575

   izeta = 2
                 rmatch =    3.431921
              splitnorm =    0.150000
                 energy =   -0.867111
                kinetic =    1.300804
    potential(screened) =   -2.167915
       potential(ionic) =   -5.962684

SPLIT: Orbitals with angular momentum L= 1

SPLIT: Basis orbitals for state 2p

SPLIT: PAO cut-off radius determined from an
SPLIT: energy shift=  0.007350 Ry

   izeta = 1
                 lambda =    1.000000
                     rc =    5.658549
                 energy =   -0.381140
                kinetic =    2.399701
    potential(screened) =   -2.780841
       potential(ionic) =   -6.206085

   izeta = 2
                 rmatch =    3.653288
              splitnorm =    0.150000
                 energy =   -0.249149
                kinetic =    3.542762
    potential(screened) =   -3.791911
       potential(ionic) =   -7.581078

POLgen: Perturbative polarization orbital with L=  2

POLgen: Polarization orbital for state 2p

   izeta = 1
                     rc =    5.658549
                 energy =    1.109913
                kinetic =    2.304789
    potential(screened) =   -1.194876
       potential(ionic) =   -4.013592
atom: Total number of Sankey-type orbitals: 13

atm_pop: Valence configuration (for local Pseudopot. screening):
 2s( 2.00)                                                            
 2p( 2.00)                                                            
Vna: chval, zval:    4.00000   4.00000

Vna:  Cut-off radius for the neutral-atom potential:   5.658549
comcore: Pseudo-core radius Rcore=  1.791422

atom: _________________________________________________________________________

<basis_specs>
===============================================================================
N                    Z=   7    Mass=  14.010        Charge= 0.17977+309
Lmxo=1 Lmxkb= 3    BasisType=split      Semic=F
L=0  Nsemic=0  Cnfigmx=2
          n=1  nzeta=2  polorb=0
            splnorm:   0.15000    
               vcte:    0.0000    
               rinn:    0.0000    
                rcs:    0.0000      0.0000    
            lambdas:    1.0000      1.0000    
L=1  Nsemic=0  Cnfigmx=2
          n=1  nzeta=2  polorb=1
            splnorm:   0.15000    
               vcte:    0.0000    
               rinn:    0.0000    
                rcs:    0.0000      0.0000    
            lambdas:    1.0000      1.0000    
-------------------------------------------------------------------------------
L=0  Nkbl=1  erefs: 0.17977+309
L=1  Nkbl=1  erefs: 0.17977+309
L=2  Nkbl=1  erefs: 0.17977+309
L=3  Nkbl=1  erefs: 0.17977+309
===============================================================================
</basis_specs>

atom: Called for N                     (Z =   7)

read_vps: Pseudopotential generation method:
read_vps: ATM3      Troullier-Martins                       
Total valence charge:    5.00000

read_vps: Pseudopotential includes a core correction:
read_vps: Pseudo-core for xc-correction

xc_check: Exchange-correlation functional:
xc_check: GGA Perdew, Burke & Ernzerhof 1996
V l=0 = -2*Zval/r beyond r=  1.4606
V l=1 = -2*Zval/r beyond r=  1.4606
V l=2 = -2*Zval/r beyond r=  1.4606
V l=3 = -2*Zval/r beyond r=  1.4606
All V_l potentials equal beyond r=  1.4606
This should be close to max(r_c) in ps generation
All pots = -2*Zval/r beyond r=  1.4606

VLOCAL1: 99.0% of the norm of Vloc inside     20.347 Ry
VLOCAL1: 99.9% of the norm of Vloc inside     46.372 Ry
atom: Maximum radius for 4*pi*r*r*local-pseudopot. charge    1.76189
atom: Maximum radius for r*vlocal+2*Zval:    1.53550
GHOST: No ghost state for L =  0
GHOST: No ghost state for L =  1
GHOST: No ghost state for L =  2
GHOST: No ghost state for L =  3

KBgen: Kleinman-Bylander projectors: 
   l= 0   rc=  1.634559   el= -1.363963   Ekb=  5.296955   kbcos=  0.335621
   l= 1   rc=  1.614250   el= -0.521451   Ekb= -5.259161   kbcos= -0.433408
   l= 2   rc=  1.718383   el=  0.001991   Ekb= -1.271464   kbcos= -0.007566
   l= 3   rc=  1.761893   el=  0.003093   Ekb= -0.494769   kbcos= -0.001015

KBgen: Total number of  Kleinman-Bylander projectors:   16
atom: -------------------------------------------------------------------------

atom: SANKEY-TYPE ORBITALS:
atom: Selected multiple-zeta basis: split     

SPLIT: Orbitals with angular momentum L= 0

SPLIT: Basis orbitals for state 2s

SPLIT: PAO cut-off radius determined from an
SPLIT: energy shift=  0.007350 Ry

   izeta = 1
                 lambda =    1.000000
                     rc =    4.071465
                 energy =   -1.356470
                kinetic =    1.176977
    potential(screened) =   -2.533447
       potential(ionic) =   -8.057990

   izeta = 2
                 rmatch =    2.905100
              splitnorm =    0.150000
                 energy =   -1.158343
                kinetic =    1.813009
    potential(screened) =   -2.971352
       potential(ionic) =   -8.901931

SPLIT: Orbitals with angular momentum L= 1

SPLIT: Basis orbitals for state 2p

SPLIT: PAO cut-off radius determined from an
SPLIT: energy shift=  0.007350 Ry

   izeta = 1
                 lambda =    1.000000
                     rc =    4.972977
                 energy =   -0.513884
                kinetic =    3.441732
    potential(screened) =   -3.955616
       potential(ionic) =   -9.287901

   izeta = 2
                 rmatch =    3.054066
              splitnorm =    0.150000
                 energy =   -0.318226
                kinetic =    5.125348
    potential(screened) =   -5.443573
       potential(ionic) =  -11.380999

POLgen: Perturbative polarization orbital with L=  2

POLgen: Polarization orbital for state 2p

   izeta = 1
                     rc =    4.972977
                 energy =    1.607437
                kinetic =    3.268125
    potential(screened) =   -1.660688
       potential(ionic) =   -5.973652
atom: Total number of Sankey-type orbitals: 13

atm_pop: Valence configuration (for local Pseudopot. screening):
 2s( 2.00)                                                            
 2p( 3.00)                                                            
Vna: chval, zval:    5.00000   5.00000

Vna:  Cut-off radius for the neutral-atom potential:   4.972977
comcore: Pseudo-core radius Rcore=  1.554824

atom: _________________________________________________________________________

prinput: Basis input ----------------------------------------------------------

PAO.BasisType split     

%block ChemicalSpeciesLabel
    1    6 C                       # Species index, atomic number, species label
    2    7 N                       # Species index, atomic number, species label
%endblock ChemicalSpeciesLabel

%block PAO.Basis                 # Define Basis set
C                     2                    # Species label, number of l-shells
 n=2   0   2                         # n, l, Nzeta 
   4.633      3.432   
   1.000      1.000   
 n=2   1   2 P   1                   # n, l, Nzeta, Polarization, NzetaPol
   5.659      3.653   
   1.000      1.000   
N                     2                    # Species label, number of l-shells
 n=2   0   2                         # n, l, Nzeta 
   4.071      2.905   
   1.000      1.000   
 n=2   1   2 P   1                   # n, l, Nzeta, Polarization, NzetaPol
   4.973      3.054   
   1.000      1.000   
%endblock PAO.Basis

prinput: ----------------------------------------------------------------------

coor:   Atomic-coordinates input format  =     Cartesian coordinates
coor:                                          (in Angstroms)

siesta: Atomic coordinates (Bohr) and species
siesta:      2.23554   1.32097   0.00000  1        1
siesta:     32.50328  21.48508   0.00000  1        2
siesta:     34.83141  22.82873   0.00000  1        3
siesta:     34.83116  17.45226   0.00000  1        4
siesta:     37.15930  18.79590   0.00000  1        5
siesta:     32.50291  13.41944   0.00000  1        6
siesta:     34.83104  14.76308   0.00000  1        7
siesta:     30.17465   9.38661   0.00000  1        8
siesta:     32.50278  10.73026   0.00000  1        9
siesta:     27.84639   5.35379   0.00000  1       10
siesta:     30.17453   6.69743   0.00000  1       11
siesta:     27.84714  21.48508   0.00000  1       12
siesta:     30.17527  22.82873   0.00000  1       13
siesta:      6.89168   1.32097   0.00000  1       14
siesta:      9.21981   2.66461   0.00000  1       15
siesta:     13.87595   2.66461   0.00000  1       16
siesta:     16.20396   1.32097   0.00000  1       17
siesta:     18.53210   2.66461   0.00000  1       18
siesta:     23.19013   2.66461   0.00000  1       19
siesta:     25.51813   1.32097   0.00000  1       20
siesta:     27.84627   2.66461   0.00000  1       21
siesta:      4.56380   5.35379   0.00000  1       22
siesta:      6.89193   6.69743   0.00000  1       23
siesta:      9.21994   5.35379   0.00000  1       24
siesta:     11.54807   6.69743   0.00000  1       25
siesta:     13.87608   5.35379   0.00000  1       26
siesta:     16.20421   6.69743   0.00000  1       27
siesta:     18.53411   5.35379   0.00000  1       28
siesta:     20.86224   6.69743   0.00000  1       29
siesta:     23.19025   5.35379   0.00000  1       30
siesta:     25.51838   6.69743   0.00000  1       31
siesta:      9.22019  10.73026   0.00000  1       32
siesta:     11.54820   9.38661   0.00000  1       33
siesta:     13.87633  10.73026   0.00000  1       34
siesta:     18.53247  10.73026   0.00000  1       35
siesta:     20.86237   9.38661   0.00000  1       36
siesta:     23.19050  10.73026   0.00000  1       37
siesta:      9.22031  13.41944   0.00000  1       38
siesta:     11.54845  14.76308   0.00000  1       39
siesta:     13.87645  13.41944   0.00000  1       40
siesta:     16.20459  14.76308   0.00000  1       41
siesta:     18.53448  13.41944   0.00000  1       42
siesta:     20.86262  14.76308   0.00000  1       43
siesta:     13.87670  18.79590   0.00000  1       44
siesta:     16.20471  17.45226   0.00000  1       45
siesta:     18.53284  18.79590   0.00000  1       46
siesta:     13.87683  21.48508   0.00000  1       47
siesta:     16.20496  22.82873   0.00000  1       48
siesta:     18.53486  21.48508   0.00000  1       49
siesta:     20.86299  22.82873   0.00000  1       50
siesta:     27.84664  10.73026   0.00000  1       51
siesta:     23.19063  13.41944   0.00000  1       52
siesta:     25.51876  14.76308   0.00000  1       53
siesta:     23.19088  18.79590   0.00000  1       54
siesta:     27.84677  13.41944   0.00000  1       55
siesta:     30.17490  14.76308   0.00000  1       56
siesta:     25.51888  17.45226   0.00000  1       57
siesta:     27.84702  18.79590   0.00000  1       58
siesta:     23.19100  21.48508   0.00000  1       59
siesta:     25.51913  22.82873   0.00000  1       60
siesta:     30.17503  17.45226   0.00000  1       61
siesta:     32.50316  18.79590   0.00000  1       62
siesta:     37.16131  21.48508   0.00000  1       63
siesta:      4.56367   2.66461   0.00000  2       64
siesta:     11.54782   1.32097   0.00000  2       65
siesta:     20.86199   1.32097   0.00000  2       66
siesta:      6.89205   9.38661   0.00000  2       67
siesta:     16.20434   9.38661   0.00000  2       68
siesta:     11.54857  17.45226   0.00000  2       69
siesta:     25.51851   9.38661   0.00000  2       70
siesta:     20.86274  17.45226   0.00000  2       71
siesta:     39.48945  22.82873   0.00000  2       72

siesta: System type = slab      

initatomlists: Number of atoms, orbitals, and projectors:     72   936  1152

siesta: ******************** Simulation parameters ****************************
siesta:
siesta: The following are some of the parameters of the simulation.
siesta: A complete list of the parameters used, including default values,
siesta: can be found in file out.fdf
siesta:
redata: Non-Collinear-spin run           =     F
redata: SpinPolarized (Up/Down) run      =     F
redata: Number of spin components        =     1
redata: Long output                      =     F
redata: Number of Atomic Species         =        2
redata: Charge density info will appear in .RHO file
redata: Write Mulliken Pop.              =     NO
redata: Mesh Cutoff                      =   200.0000  Ry
redata: Net charge of the system         =     0.0000 |e|
redata: Max. number of SCF Iter          =      500
redata: SCF convergence failure will abort job
redata: Performing Pulay mixing using    =    10 iterations
redata: Mix DM in first SCF step ?       =     F
redata: Write Pulay info on disk?        =     F
redata: Discard 1st Pulay DM after  kick =     F
redata: New DM Mixing Weight             =     0.0500
redata: New DM Occupancy tolerance       = 0.000000000001
redata: No kicks to SCF
redata: DM Mixing Weight for Kicks       =     0.5000
redata: DM Tolerance for SCF             =     0.000100
redata: Require Energy convergence for SCF =     F
redata: DM Energy tolerance for SCF      =     0.000100 eV
redata: Require Harris convergence for SCF =     F
redata: DM Harris energy tolerance for SCF =     0.000100 eV
redata: Using Saved Data (generic)   =     F
redata: Use continuation files for DM    =     T
redata: Neglect nonoverlap interactions  =     F
redata: Method of Calculation            =     Diagonalization
redata: Divide and Conquer               =     T
redata: Electronic Temperature           =     0.0019  Ry
redata: Fix the spin of the system       =     F
redata: Dynamics option                  =     Verlet MD run
redata: Initial MD time step             =        1
redata:   Final MD time step             =        1
redata: Length of MD time step           =     1.0000  fs
redata: Initial Temperature of MD run    =     0.0000  K
redata: Perform a MD quench              =     F
redata: ***********************************************************************
Total number of electrons:   297.000000
Total ionic charge:   297.000000

* ProcessorY, Blocksize:    2  24

k-point displ. along   1 input, could be:     0.00    0.50
k-point displ. along   2 input, could be:     0.00    0.50
 Kpoints in:          364 . Kpoints trimmed:          352

siesta: k-grid: Number of k-points =   352
siesta: k-grid: Cutoff (effective) =     5.000 Ang
siesta: k-grid: Supercell and displacements
siesta: k-grid:   26   0   0      0.000
siesta: k-grid:    0  26   0      0.000
siesta: k-grid:    0   0   1      0.000
Naive supercell factors:     2    2    2

superc: Internal auxiliary supercell:     2 x     2 x     2  =       8
superc: Number of atoms, orbitals, and projectors:    576   7488   9216

* Maximum dynamic memory allocated =     6 MB

siesta:                 ==============================
                            Begin MD step =      1
                        ==============================

superc: Internal auxiliary supercell:     2 x     2 x     2  =       8
superc: Number of atoms, orbitals, and projectors:    576   7488   9216

outcell: Unit cell vectors (Ang):
       14.785000    0.000000    0.000000
        7.393000   12.805052    0.000000
        0.000000    0.000000   10.000000

outcell: Cell vector modules (Ang)   :   14.785000   14.786000   10.000000
outcell: Cell angles (23,13,12) (deg):     90.0000     90.0000     60.0000
outcell: Cell volume (Ang**3)        :   1893.2269
New_DM. Step:     1
Initializing Density Matrix...

iodm: Reading Density Matrix from files
 Read DM has different structure. Fixing...

InitMesh: MESH =   120 x   120 x    90 =     1296000
InitMesh: Mesh cutoff (required, used) =   200.000   223.865 Ry

* Maximum dynamic memory allocated =   187 MB

stepf: Fermi-Dirac step function

siesta: Program's energy decomposition (eV):
siesta: Ebs     =     -4353.484362
siesta: Eions   =     19849.732669
siesta: Ena     =      4064.211637
siesta: Ekin    =      8468.701903
siesta: Enl     =      -984.902135
siesta: DEna    =      -307.678081
siesta: DUscf   =       169.407705
siesta: DUext   =         0.000000
siesta: Exc     =     -4275.941359
siesta: eta*DQ  =         0.000000
siesta: Emadel  =         0.000000
siesta: Emeta   =         0.000000
siesta: Emolmec =         0.000000
siesta: Ekinion =         0.000000
siesta: Eharris =    -13188.266008
siesta: Etot    =    -12715.932998
siesta: FreeEng =    -12715.932998

siesta: iscf   Eharris(eV)      E_KS(eV)   FreeEng(eV)   dDmax  Ef(eV)
siesta:    1   -13188.2660   -12715.9330   -12715.9330  1.0703 -2.5743
timer: Routine,Calls,Time,% = IterSCF        1    6631.450  99.81
elaps: Routine,Calls,Wall,% = IterSCF        1     829.948  99.81
siesta:    2   -34767.6336    -9296.6639    -9296.7177230.5254-27.9725
siesta:    3   -12933.0157   -12729.6842   -12729.7346  0.7111 -2.6515
siesta:    4   -12873.2134   -12738.2708   -12738.2940  0.6256 -2.7776
siesta:    5   -12792.1795   -12748.4512   -12748.4763  0.5570 -2.9097
siesta:    6   -12752.3675   -12748.6586   -12748.6813  0.5155 -2.9819
siesta:    7   -12743.2358   -12743.4674   -12743.4971  0.3964 -3.0492
siesta:    8   -12741.7576   -12741.3481   -12741.3841  0.3032 -3.2181
siesta:    9   -12744.1218   -12737.2718   -12737.3037  0.1208 -3.5676
siesta:   10   -12742.1536   -12737.3949   -12737.4254  0.0739 -3.5995
siesta:   11   -12740.7475   -12737.3894   -12737.4209  0.0731 -3.5621
siesta:   12   -12740.3503   -12737.5815   -12737.6132  0.0491 -3.5275
siesta:   13   -12740.3383   -12737.9658   -12737.9992  0.0393 -3.5188
siesta:   14   -12740.2812   -12738.6135   -12738.6464  0.0209 -3.4780
siesta:   15   -12740.2484   -12739.0138   -12739.0450  0.0155 -3.4545
siesta:   16   -12740.2296   -12739.3707   -12739.4018  0.0110 -3.4380
siesta:   17   -12740.2187   -12739.6511   -12739.6825  0.0078 -3.4332
siesta:   18   -12740.2186   -12739.7591   -12739.7906  0.0058 -3.4314
siesta:   19   -12740.2186   -12739.8183   -12739.8498  0.0043 -3.4331
siesta:   20   -12740.2180   -12740.0694   -12740.1008  0.0014 -3.4349
siesta:   21   -12740.2178   -12740.1049   -12740.1364  0.0010 -3.4351
siesta:   22   -12740.2176   -12740.1639   -12740.1953  0.0004 -3.4360
siesta:   23   -12740.2176   -12740.1707   -12740.2022  0.0003 -3.4358
siesta:   24   -12740.2176   -12740.1756   -12740.2071  0.0003 -3.4357
siesta:   25   -12740.2176   -12740.1824   -12740.2139  0.0003 -3.4357
siesta:   26   -12740.2176   -12740.1971   -12740.2285  0.0001 -3.4356
siesta:   27   -12740.2176   -12740.2023   -12740.2338  0.0001 -3.4356
siesta:   28   -12740.2176   -12740.2070   -12740.2385  0.0001 -3.4356

siesta: E_KS(eV) =           -12740.2103

siesta: E_KS - E_eggbox =    -12740.2103

siesta: Atomic forces (eV/Ang):
----------------------------------------
   Tot    0.238287   -0.267644    0.000000
----------------------------------------
   Max    1.091318
   Res    0.313990    sqrt( Sum f_i^2 / 3N )
----------------------------------------
   Max    1.091318    constrained

Stress-tensor-Voigt (kbar):        0.16        1.29        0.14       -0.73        0.00        0.00
(Free)E + p*V (eV/cell)   -12740.8708
Target enthalpy (eV/cell)   -12740.2418

siesta: Stress tensor (static) (eV/Ang**3):
         0.000102   -0.000453    0.000000
        -0.000453    0.000804    0.000000
         0.000000    0.000000    0.000090

siesta: Pressure (static):         -0.53235069  kBar

siesta: Stress tensor (total) (eV/Ang**3):
         0.000102   -0.000453    0.000000
        -0.000453    0.000804    0.000000
         0.000000    0.000000    0.000090

siesta: Pressure (total):         -0.53235069  kBar

siesta: Temp_ion =       0.000 K

* Maximum dynamic memory allocated =   203 MB

siesta: Program's energy decomposition (eV):
siesta: Ebs     =     -4185.048358
siesta: Eions   =     19849.732669
siesta: Ena     =      4064.211637
siesta: Ekin    =      8580.108678
siesta: Enl     =     -1059.234971
siesta: DEna    =      -247.469506
siesta: DUscf   =        22.414697
siesta: DUext   =         0.000000
siesta: Exc     =     -4250.508182
siesta: eta*DQ  =         0.000000
siesta: Emadel  =         0.000000
siesta: Emeta   =         0.000000
siesta: Emolmec =         0.000000
siesta: Ekinion =         0.000000
siesta: Eharris =    -12740.217599
siesta: Etot    =    -12740.210316
siesta: FreeEng =    -12740.241765

siesta: Final energy (eV):
siesta:  Band Struct. =   -4185.048358
siesta:       Kinetic =    8580.108678
siesta:       Hartree =   24800.974014
siesta:    Ext. field =       0.000000
siesta:   Exch.-corr. =   -4250.508182
siesta:  Ion-electron =  -57578.113109
siesta:       Ion-ion =   15707.328284
siesta:       Ekinion =       0.000000
siesta:         Total =  -12740.210316

siesta: Atomic forces (eV/Ang):
siesta:      1    0.463775    0.252003    0.000000
siesta:      2   -0.231033    0.407749    0.000000
siesta:      3    0.803836    0.548117    0.000000
siesta:      4    0.240780   -0.423373    0.000000
siesta:      5    0.876286    0.400572    0.000000
siesta:      6    0.571157   -0.172833    0.000000
siesta:      7   -0.418497    0.405357    0.000000
siesta:      8    0.041854    0.201820    0.000000
siesta:      9    0.424711   -0.270615    0.000000
siesta:     10   -0.412029    0.879216    0.000000
siesta:     11    0.305968   -1.091318    0.000000
siesta:     12    0.147345    0.564695    0.000000
siesta:     13    0.132018   -0.555397    0.000000
siesta:     14    0.130258   -0.211998    0.000000
siesta:     15   -0.110955   -0.319308    0.000000
siesta:     16   -0.251306   -0.371906    0.000000
siesta:     17    0.010522    0.188673    0.000000
siesta:     18    0.230153   -0.294570    0.000000
siesta:     19    0.485482   -1.028304    0.000000
siesta:     20   -0.866360   -0.619597    0.000000
siesta:     21    0.175907   -0.419842    0.000000
siesta:     22   -0.105305    0.197313    0.000000
siesta:     23   -0.329489    0.062651    0.000000
siesta:     24    0.683565    0.386806    0.000000
siesta:     25   -0.346147   -0.195211    0.000000
siesta:     26   -0.105243    0.273999    0.000000
siesta:     27    0.034037    0.126521    0.000000
siesta:     28   -0.041096    0.142228    0.000000
siesta:     29    0.426995   -0.140843    0.000000
siesta:     30   -0.357133    0.516133    0.000000
siesta:     31    0.282594    0.369378    0.000000
siesta:     32   -0.449968   -0.025140    0.000000
siesta:     33    0.195732   -0.256575    0.000000
siesta:     34    0.121338   -0.060107    0.000000
siesta:     35    0.068899    0.010203    0.000000
siesta:     36   -0.142165   -0.206504    0.000000
siesta:     37    0.335550    0.006292    0.000000
siesta:     38    0.183519   -0.119345    0.000000
siesta:     39   -0.161018    0.320793    0.000000
siesta:     40    0.129536   -0.085634    0.000000
siesta:     41    0.121791    0.435162    0.000000
siesta:     42   -0.270566   -0.000904    0.000000
siesta:     43    0.167365    0.291904    0.000000
siesta:     44   -0.642945    0.935625    0.000000
siesta:     45    0.282266   -0.583947    0.000000
siesta:     46    0.497144    0.058648    0.000000
siesta:     47   -0.931603   -0.467876    0.000000
siesta:     48   -0.245311    0.355024    0.000000
siesta:     49    0.525649   -0.805587    0.000000
siesta:     50   -0.801352    0.816518    0.000000
siesta:     51   -0.246035   -0.362257    0.000000
siesta:     52   -0.175278   -0.112622    0.000000
siesta:     53    0.511132    0.299716    0.000000
siesta:     54   -0.445094   -0.027625    0.000000
siesta:     55   -0.598003   -0.170788    0.000000
siesta:     56    0.006837   -0.240170    0.000000
siesta:     57   -0.431943   -0.456075    0.000000
siesta:     58   -0.208637    0.129406    0.000000
siesta:     59    0.208698   -0.082932    0.000000
siesta:     60   -0.032644    0.506006    0.000000
siesta:     61    0.001251   -0.013560    0.000000
siesta:     62    0.196610    0.114440    0.000000
siesta:     63    0.107341    0.083288    0.000000
siesta:     64    0.066513    0.055754    0.000000
siesta:     65    0.014958   -0.082484    0.000000
siesta:     66   -0.497625    0.021665    0.000000
siesta:     67   -0.047792    0.017820    0.000000
siesta:     68   -0.139021   -0.098811    0.000000
siesta:     69   -0.196976   -0.464095    0.000000
siesta:     70   -0.169115   -0.060595    0.000000
siesta:     71   -0.142834   -0.141246    0.000000
siesta:     72    0.579435    0.390852    0.000000
siesta: ----------------------------------------
siesta:    Tot    0.238287   -0.267644    0.000000

siesta: Stress tensor (static) (eV/Ang**3):
siesta:     0.000102   -0.000453    0.000000
siesta:    -0.000453    0.000804    0.000000
siesta:     0.000000    0.000000    0.000090

siesta: Cell volume =       1893.226895 Ang**3

siesta: Pressure (static):
siesta:                Solid            Molecule  Units
siesta:          -0.00000362         -0.00009059  Ry/Bohr**3
siesta:          -0.00033226         -0.00831729  eV/Ang**3
siesta:          -0.53235069        -13.32590568  kBar
(Free)E+ p_basis*V_orbitals  =      -12710.790818
(Free)Eharris+ p_basis*V_orbitals  =      -12710.801405

siesta: Electric dipole (a.u.)  =    0.000000    0.000000    0.000000
siesta: Electric dipole (Debye) =    0.000000    0.000000    0.000000

* Maximum dynamic memory allocated : Node    0 =   203 MB
* Maximum dynamic memory allocated : Node    1 =    74 MB
* Maximum dynamic memory allocated : Node    2 =    76 MB
* Maximum dynamic memory allocated : Node    3 =   192 MB
* Maximum dynamic memory allocated : Node    4 =   203 MB
* Maximum dynamic memory allocated : Node    5 =    74 MB
* Maximum dynamic memory allocated : Node    6 =    75 MB
* Maximum dynamic memory allocated : Node    7 =   187 MB

* Maximum memory occured during matrixMtoO                    

timer: CPU execution times:
timer:  Routine       Calls   Time/call    Tot.time        %
timer:  siesta            1  183631.960  183631.960   100.00
timer:  Setup             1       3.771       3.771     0.00
timer:  bands             1       0.013       0.013     0.00
timer:  writewave         1       0.041       0.041     0.00
timer:  KSV_init          1       0.008       0.008     0.00
timer:  IterMD            1  183620.312  183620.312    99.99
timer:  hsparse           1       0.255       0.255     0.00
timer:  overlap           1       6.345       6.345     0.00
timer:  IterSCF          28    6551.976  183455.330    99.90
timer:  kinefsm           2       3.265       6.530     0.00
timer:  nlefsm            2      18.795      37.590     0.02
timer:  DHSCF            29      87.606    2540.569     1.38
timer:  DHSCF1            1       0.755       0.755     0.00
timer:  DHSCF2            1      33.177      33.177     0.02
timer:  REORD           234       0.010       2.365     0.00
timer:  POISON           30       2.252      67.564     0.04
timer:  DHSCF3           29      85.325    2474.414     1.35
timer:  rhoofd           29      16.190     469.500     0.26
timer:  cellXC           29       3.512     101.836     0.06
timer:  vmat             29      43.314    1256.099     0.68
timer:  MolMec            2       0.000       0.000     0.00
timer:  diagon           28    6462.605  180952.936    98.54
timer:  c-eigval       9856       6.678   65820.858    35.84
timer:  c-buildHS      9856       0.117    1157.206     0.63
timer:  cdiag         19712       6.864  135302.072    73.68
timer:  cdiag1        19712       0.427    8410.974     4.58
timer:  cdiag2        19712       1.903   37508.004    20.43
timer:  cdiag3        19712       3.953   77920.541    42.43
timer:  cdiag4        19712       0.204    4021.678     2.19
timer:  c-eigvec       9856       7.239   71349.625    38.85
timer:  c-buildD       9856       4.434   43699.368    23.80
timer:  DHSCF4            1      30.662      30.662     0.02
timer:  dfscf             1      28.828      28.828     0.02
timer:  overfsm           1       0.379       0.379     0.00
timer:  optical           1       6.934       6.934     0.00
  

elaps: ELAPSED times:
elaps:  Routine       Calls   Time/call    Tot.time        %
elaps:  siesta            1   22979.155   22979.155   100.00
elaps:  Setup             1       0.489       0.489     0.00
elaps:  bands             1       0.003       0.003     0.00
elaps:  writewave         1       0.006       0.006     0.00
elaps:  KSV_init          1       0.001       0.001     0.00
elaps:  IterMD            1   22977.673   22977.673    99.99
elaps:  hsparse           1       0.032       0.032     0.00
elaps:  overlap           1       0.522       0.522     0.00
elaps:  IterSCF          28     819.898   22957.149    99.90
elaps:  kinefsm           2       0.275       0.549     0.00
elaps:  nlefsm            2       2.468       4.935     0.02
elaps:  DHSCF            29      11.070     321.021     1.40
elaps:  DHSCF1            1       0.098       0.098     0.00
elaps:  DHSCF2            1       4.150       4.150     0.02
elaps:  REORD           234       0.001       0.312     0.00
elaps:  POISON           30       0.282       8.457     0.04
elaps:  DHSCF3           29      10.675     309.561     1.35
elaps:  rhoofd           29       3.511     101.828     0.44
elaps:  cellXC           29       0.439      12.719     0.06
elaps:  vmat             29       5.419     157.137     0.68
elaps:  MolMec            2       0.000       0.000     0.00
elaps:  diagon           28     808.728   22644.385    98.54
elaps:  c-eigval       9856       0.836    8235.220    35.84
elaps:  c-buildHS      9856       0.016     157.837     0.69
elaps:  cdiag         19712       0.845   16662.349    72.51
elaps:  cdiag1        19712       0.053    1041.357     4.53
elaps:  cdiag2        19712       0.238    4693.138    20.42
elaps:  cdiag3        19712       0.495    9762.032    42.48
elaps:  cdiag4        19712       0.026     507.525     2.21
elaps:  c-eigvec       9856       0.882    8696.599    37.85
elaps:  c-buildD       9856       0.578    5700.907    24.81
elaps:  DHSCF4            1       7.002       7.002     0.03
elaps:  dfscf             1       6.623       6.623     0.03
elaps:  overfsm           1       0.048       0.048     0.00
elaps:  optical           1       0.001       0.001     0.00
  
>> End of run:  29-NOV-2015  21:24:33
