Siesta Version:                                        siesta-3.2-pl-3
Architecture  : x86_64-unknown-linux-gnu--unknown
Compiler flags: mpiifort -g -O2 -fPIC -xSSE4.1 -fp-model source -shared-intel 
PARALLEL version

* Running on    8 nodes in parallel
>> Start of run:   3-DEC-2015  21:01:34

                           ***********************       
                           *  WELCOME TO SIESTA  *       
                           ***********************       

reinit: Reading from standard input
************************** Dump of input data file ****************************
#(1) General system descriptors
SystemName            GRP_doping    # Descriptive name of the system
SystemLabel           GRP_doping    # Short name for naming files
%include STRUCT.fdf
%include KPT.fdf
%include BASIS.fdf
#%include TS.fdf # for transiesta calculation
#(4) DFT, Grid, SCF
XC.functional         GGA           # LDA or GGA (default = LDA)
XC.authors            PBE           # CA (Ceperley-Aldr) = PZ
                                    #    (Perdew-Zunger) - LDA - Default
                                    # PW92 (Perdew-Wang-92) - LDA
                                    # PBE (Perdew-Burke-Ernzerhof) - GGA
MeshCutoff            200.000000    Ry      # Default: 50.0 Ry ~ 0.444 Bohr
                                    #         100.0 Ry ~ 0.314 Bohr
MaxSCFIterations      500           # Default: 50
DM.MixingWeight       0.05          # Default: 0.25
DM.NumberPulay        10            # Default: 0
DM.PulayOnFile        F             # SystemLabel.P1, SystemLabel.P2
DM.Tolerance          1.d-4         # Default: 1.d-4
DM.UseSaveDM          .true.        # because of the bug
SCFMustConverge       .true.
NeglNonOverlapInt     F             # Default: F
#(5) Eigenvalue problem: order-N or diagonalization
SolutionMethod        Diagon        # or Transiesta
ElectronicTemperature 300.0 K       # Default: 300.0 K
#(6) Molecular dynamics and relaxations
#MD.TypeOfRun          CG            # Type of dynamics:
#MD.VariableCell       F
#MD.NumCGsteps         0           # 0 for single-point / 100 for gopt
#MD.MaxCGDispl         0.2 Bohr      # Default: 0.2 Bohr
#MD.MaxForceTol        0.02 eV/Ang   # Default: 0.04 eV/Ang
#MD.MaxStressTol       1.0 GPa       # Default: 1.0 GPa
# Geometry Constraints
#%block GeometryConstraints
#	position from 1 to 44
#%endblock GeometryConstraints
************************** End of input data file *****************************

reinit: -----------------------------------------------------------------------
reinit: System Name: GRP_doping
reinit: -----------------------------------------------------------------------
reinit: System Label: GRP_doping                                                  
reinit: -----------------------------------------------------------------------

initatom: Reading input for the pseudopotentials and atomic orbitals ----------
 Species number:            1  Label: C Atomic number:           6
 Species number:            2  Label: B Atomic number:           5
Ground state valence configuration:   2s02  2p02
Reading pseudopotential information in formatted form from C.psf

Valence configuration for pseudopotential generation:
2s( 2.00) rc: 1.54
2p( 2.00) rc: 1.54
3d( 0.00) rc: 1.54
4f( 0.00) rc: 1.54
Ground state valence configuration:   2s02  2p01
Reading pseudopotential information in formatted form from B.psf

Valence configuration for pseudopotential generation:
2s( 2.00) rc: 1.74
2p( 1.00) rc: 1.74
3d( 0.00) rc: 1.74
4f( 0.00) rc: 1.74
For C, standard SIESTA heuristics set lmxkb to 3
 (one more than the basis l, including polarization orbitals).
Use PS.lmax or PS.KBprojectors blocks to override.
For B, standard SIESTA heuristics set lmxkb to 3
 (one more than the basis l, including polarization orbitals).
Use PS.lmax or PS.KBprojectors blocks to override.

<basis_specs>
===============================================================================
C                    Z=   6    Mass=  12.010        Charge= 0.17977+309
Lmxo=1 Lmxkb= 3    BasisType=split      Semic=F
L=0  Nsemic=0  Cnfigmx=2
          n=1  nzeta=2  polorb=0
            splnorm:   0.15000    
               vcte:    0.0000    
               rinn:    0.0000    
                rcs:    0.0000      0.0000    
            lambdas:    1.0000      1.0000    
L=1  Nsemic=0  Cnfigmx=2
          n=1  nzeta=2  polorb=1
            splnorm:   0.15000    
               vcte:    0.0000    
               rinn:    0.0000    
                rcs:    0.0000      0.0000    
            lambdas:    1.0000      1.0000    
-------------------------------------------------------------------------------
L=0  Nkbl=1  erefs: 0.17977+309
L=1  Nkbl=1  erefs: 0.17977+309
L=2  Nkbl=1  erefs: 0.17977+309
L=3  Nkbl=1  erefs: 0.17977+309
===============================================================================
</basis_specs>

atom: Called for C                     (Z =   6)

read_vps: Pseudopotential generation method:
read_vps: ATM3      Troullier-Martins                       
Total valence charge:    4.00000

read_vps: Pseudopotential includes a core correction:
read_vps: Pseudo-core for xc-correction

xc_check: Exchange-correlation functional:
xc_check: GGA Perdew, Burke & Ernzerhof 1996
V l=0 = -2*Zval/r beyond r=  1.5227
V l=1 = -2*Zval/r beyond r=  1.5227
V l=2 = -2*Zval/r beyond r=  1.5227
V l=3 = -2*Zval/r beyond r=  1.5038
All V_l potentials equal beyond r=  1.5227
This should be close to max(r_c) in ps generation
All pots = -2*Zval/r beyond r=  1.5227

VLOCAL1: 99.0% of the norm of Vloc inside     18.722 Ry
VLOCAL1: 99.9% of the norm of Vloc inside     42.668 Ry
atom: Maximum radius for 4*pi*r*r*local-pseudopot. charge    1.83678
atom: Maximum radius for r*vlocal+2*Zval:    1.58088
GHOST: No ghost state for L =  0
GHOST: No ghost state for L =  1
GHOST: No ghost state for L =  2
GHOST: No ghost state for L =  3

KBgen: Kleinman-Bylander projectors: 
   l= 0   rc=  1.704034   el= -1.009801   Ekb=  5.335044   kbcos=  0.316824
   l= 1   rc=  1.704034   el= -0.388707   Ekb= -3.785862   kbcos= -0.366464
   l= 2   rc=  1.791422   el=  0.001971   Ekb= -0.970471   kbcos= -0.009212
   l= 3   rc=  1.859892   el=  0.003065   Ekb= -0.399525   kbcos= -0.001223

KBgen: Total number of  Kleinman-Bylander projectors:   16
atom: -------------------------------------------------------------------------

atom: SANKEY-TYPE ORBITALS:
atom: Selected multiple-zeta basis: split     

SPLIT: Orbitals with angular momentum L= 0

SPLIT: Basis orbitals for state 2s

SPLIT: PAO cut-off radius determined from an
SPLIT: energy shift=  0.007350 Ry

   izeta = 1
                 lambda =    1.000000
                     rc =    4.632753
                 energy =   -1.002270
                kinetic =    0.855760
    potential(screened) =   -1.858031
       potential(ionic) =   -5.417575

   izeta = 2
                 rmatch =    3.431921
              splitnorm =    0.150000
                 energy =   -0.867111
                kinetic =    1.300804
    potential(screened) =   -2.167915
       potential(ionic) =   -5.962684

SPLIT: Orbitals with angular momentum L= 1

SPLIT: Basis orbitals for state 2p

SPLIT: PAO cut-off radius determined from an
SPLIT: energy shift=  0.007350 Ry

   izeta = 1
                 lambda =    1.000000
                     rc =    5.658549
                 energy =   -0.381140
                kinetic =    2.399701
    potential(screened) =   -2.780841
       potential(ionic) =   -6.206085

   izeta = 2
                 rmatch =    3.653288
              splitnorm =    0.150000
                 energy =   -0.249149
                kinetic =    3.542762
    potential(screened) =   -3.791911
       potential(ionic) =   -7.581078

POLgen: Perturbative polarization orbital with L=  2

POLgen: Polarization orbital for state 2p

   izeta = 1
                     rc =    5.658549
                 energy =    1.109913
                kinetic =    2.304789
    potential(screened) =   -1.194876
       potential(ionic) =   -4.013592
atom: Total number of Sankey-type orbitals: 13

atm_pop: Valence configuration (for local Pseudopot. screening):
 2s( 2.00)                                                            
 2p( 2.00)                                                            
Vna: chval, zval:    4.00000   4.00000

Vna:  Cut-off radius for the neutral-atom potential:   5.658549
comcore: Pseudo-core radius Rcore=  1.791422

atom: _________________________________________________________________________

<basis_specs>
===============================================================================
B                    Z=   5    Mass=  10.810        Charge= 0.17977+309
Lmxo=1 Lmxkb= 3    BasisType=split      Semic=F
L=0  Nsemic=0  Cnfigmx=2
          n=1  nzeta=2  polorb=0
            splnorm:   0.15000    
               vcte:    0.0000    
               rinn:    0.0000    
                rcs:    0.0000      0.0000    
            lambdas:    1.0000      1.0000    
L=1  Nsemic=0  Cnfigmx=2
          n=1  nzeta=2  polorb=1
            splnorm:   0.15000    
               vcte:    0.0000    
               rinn:    0.0000    
                rcs:    0.0000      0.0000    
            lambdas:    1.0000      1.0000    
-------------------------------------------------------------------------------
L=0  Nkbl=1  erefs: 0.17977+309
L=1  Nkbl=1  erefs: 0.17977+309
L=2  Nkbl=1  erefs: 0.17977+309
L=3  Nkbl=1  erefs: 0.17977+309
===============================================================================
</basis_specs>

atom: Called for B                     (Z =   5)

read_vps: Pseudopotential generation method:
read_vps: ATM3      Troullier-Martins                       
Total valence charge:    3.00000

read_vps: Pseudopotential includes a core correction:
read_vps: Pseudo-core for xc-correction

xc_check: Exchange-correlation functional:
xc_check: GGA Perdew, Burke & Ernzerhof 1996
V l=0 = -2*Zval/r beyond r=  1.7165
V l=1 = -2*Zval/r beyond r=  1.7165
V l=2 = -2*Zval/r beyond r=  1.7165
V l=3 = -2*Zval/r beyond r=  1.6951
All V_l potentials equal beyond r=  1.7165
This should be close to max(r_c) in ps generation
All pots = -2*Zval/r beyond r=  1.7165

VLOCAL1: 99.0% of the norm of Vloc inside     14.733 Ry
VLOCAL1: 99.9% of the norm of Vloc inside     33.577 Ry
atom: Maximum radius for 4*pi*r*r*local-pseudopot. charge    2.04484
atom: Maximum radius for r*vlocal+2*Zval:    1.75994
GHOST: No ghost state for L =  0
GHOST: No ghost state for L =  1
GHOST: No ghost state for L =  2
GHOST: No ghost state for L =  3

KBgen: Kleinman-Bylander projectors: 
   l= 0   rc=  1.897051   el= -0.693730   Ekb=  4.595746   kbcos=  0.286105
   l= 1   rc=  1.920920   el= -0.265236   Ekb= -2.350715   kbcos= -0.315747
   l= 2   rc=  2.044840   el=  0.002055   Ekb= -0.690767   kbcos= -0.013822
   l= 3   rc=  2.149707   el=  0.003188   Ekb= -0.315358   kbcos= -0.002055

KBgen: Total number of  Kleinman-Bylander projectors:   16
atom: -------------------------------------------------------------------------

atom: SANKEY-TYPE ORBITALS:
atom: Selected multiple-zeta basis: split     

SPLIT: Orbitals with angular momentum L= 0

SPLIT: Basis orbitals for state 2s

SPLIT: PAO cut-off radius determined from an
SPLIT: energy shift=  0.007350 Ry

   izeta = 1
                 lambda =    1.000000
                     rc =    5.422032
                 energy =   -0.686029
                kinetic =    0.576707
    potential(screened) =   -1.262736
       potential(ionic) =   -3.271094

   izeta = 2
                 rmatch =    4.222573
              splitnorm =    0.150000
                 energy =   -0.602132
                kinetic =    0.858975
    potential(screened) =   -1.461107
       potential(ionic) =   -3.582536

SPLIT: Orbitals with angular momentum L= 1

SPLIT: Basis orbitals for state 2p

SPLIT: PAO cut-off radius determined from an
SPLIT: energy shift=  0.007350 Ry

   izeta = 1
                 lambda =    1.000000
                     rc =    6.790259
                 energy =   -0.258578
                kinetic =    1.481412
    potential(screened) =   -1.739989
       potential(ionic) =   -3.657461

   izeta = 2
                 rmatch =    4.608740
              splitnorm =    0.150000
                 energy =   -0.173757
                kinetic =    2.186690
    potential(screened) =   -2.360447
       potential(ionic) =   -4.464260

POLgen: Perturbative polarization orbital with L=  2

POLgen: Polarization orbital for state 2p

   izeta = 1
                     rc =    6.790259
                 energy =    0.684082
                kinetic =    1.471481
    potential(screened) =   -0.787399
       potential(ionic) =   -2.406985
atom: Total number of Sankey-type orbitals: 13

atm_pop: Valence configuration (for local Pseudopot. screening):
 2s( 2.00)                                                            
 2p( 1.00)                                                            
Vna: chval, zval:    3.00000   3.00000

Vna:  Cut-off radius for the neutral-atom potential:   6.790259
comcore: Pseudo-core radius Rcore=  2.122997

atom: _________________________________________________________________________

prinput: Basis input ----------------------------------------------------------

PAO.BasisType split     

%block ChemicalSpeciesLabel
    1    6 C                       # Species index, atomic number, species label
    2    5 B                       # Species index, atomic number, species label
%endblock ChemicalSpeciesLabel

%block PAO.Basis                 # Define Basis set
C                     2                    # Species label, number of l-shells
 n=2   0   2                         # n, l, Nzeta 
   4.633      3.432   
   1.000      1.000   
 n=2   1   2 P   1                   # n, l, Nzeta, Polarization, NzetaPol
   5.659      3.653   
   1.000      1.000   
B                     2                    # Species label, number of l-shells
 n=2   0   2                         # n, l, Nzeta 
   5.422      4.223   
   1.000      1.000   
 n=2   1   2 P   1                   # n, l, Nzeta, Polarization, NzetaPol
   6.790      4.609   
   1.000      1.000   
%endblock PAO.Basis

prinput: ----------------------------------------------------------------------

coor:   Atomic-coordinates input format  =     Cartesian coordinates
coor:                                          (in Angstroms)

siesta: Atomic coordinates (Bohr) and species
siesta:      2.23554   1.32097   0.00000  1        1
siesta:     32.50328  21.48508   0.00000  1        2
siesta:     34.83141  22.82873   0.00000  1        3
siesta:     34.83116  17.45226   0.00000  1        4
siesta:     37.15930  18.79590   0.00000  1        5
siesta:     32.50291  13.41944   0.00000  1        6
siesta:     30.17465   9.38661   0.00000  1        7
siesta:     32.50278  10.73026   0.00000  1        8
siesta:     27.84639   5.35379   0.00000  1        9
siesta:     27.84714  21.48508   0.00000  1       10
siesta:      6.89168   1.32097   0.00000  1       11
siesta:      9.21981   2.66461   0.00000  1       12
siesta:     11.54782   1.32097   0.00000  1       13
siesta:     16.20396   1.32097   0.00000  1       14
siesta:     18.53210   2.66461   0.00000  1       15
siesta:     20.86199   1.32097   0.00000  1       16
siesta:     25.51813   1.32097   0.00000  1       17
siesta:     27.84627   2.66461   0.00000  1       18
siesta:      4.56380   5.35379   0.00000  1       19
siesta:      6.89193   6.69743   0.00000  1       20
siesta:      9.21994   5.35379   0.00000  1       21
siesta:     13.87608   5.35379   0.00000  1       22
siesta:     16.20421   6.69743   0.00000  1       23
siesta:     18.53411   5.35379   0.00000  1       24
siesta:     23.19025   5.35379   0.00000  1       25
siesta:     25.51838   6.69743   0.00000  1       26
siesta:      6.89205   9.38661   0.00000  1       27
siesta:     11.54820   9.38661   0.00000  1       28
siesta:     13.87633  10.73026   0.00000  1       29
siesta:     16.20434   9.38661   0.00000  1       30
siesta:     20.86237   9.38661   0.00000  1       31
siesta:     23.19050  10.73026   0.00000  1       32
siesta:      9.22031  13.41944   0.00000  1       33
siesta:     11.54845  14.76308   0.00000  1       34
siesta:     13.87645  13.41944   0.00000  1       35
siesta:     18.53448  13.41944   0.00000  1       36
siesta:     20.86262  14.76308   0.00000  1       37
siesta:     11.54857  17.45226   0.00000  1       38
siesta:     16.20471  17.45226   0.00000  1       39
siesta:     18.53284  18.79590   0.00000  1       40
siesta:     13.87683  21.48508   0.00000  1       41
siesta:     16.20496  22.82873   0.00000  1       42
siesta:     18.53486  21.48508   0.00000  1       43
siesta:     25.51851   9.38661   0.00000  1       44
siesta:     23.19063  13.41944   0.00000  1       45
siesta:     20.86274  17.45226   0.00000  1       46
siesta:     27.84677  13.41944   0.00000  1       47
siesta:     30.17490  14.76308   0.00000  1       48
siesta:     25.51888  17.45226   0.00000  1       49
siesta:     27.84702  18.79590   0.00000  1       50
siesta:     23.19100  21.48508   0.00000  1       51
siesta:     25.51913  22.82873   0.00000  1       52
siesta:     30.17503  17.45226   0.00000  1       53
siesta:     37.16131  21.48508   0.00000  1       54
siesta:      4.56367   2.66461   0.00000  2       55
siesta:     34.83104  14.76308   0.00000  2       56
siesta:     30.17453   6.69743   0.00000  2       57
siesta:     30.17527  22.82873   0.00000  2       58
siesta:     13.87595   2.66461   0.00000  2       59
siesta:     23.19013   2.66461   0.00000  2       60
siesta:     11.54807   6.69743   0.00000  2       61
siesta:     20.86224   6.69743   0.00000  2       62
siesta:      9.22019  10.73026   0.00000  2       63
siesta:     18.53247  10.73026   0.00000  2       64
siesta:     16.20459  14.76308   0.00000  2       65
siesta:     13.87670  18.79590   0.00000  2       66
siesta:     20.86299  22.82873   0.00000  2       67
siesta:     27.84664  10.73026   0.00000  2       68
siesta:     25.51876  14.76308   0.00000  2       69
siesta:     23.19088  18.79590   0.00000  2       70
siesta:     32.50316  18.79590   0.00000  2       71
siesta:     39.48945  22.82873   0.00000  2       72

siesta: System type = slab      

initatomlists: Number of atoms, orbitals, and projectors:     72   936  1152

siesta: ******************** Simulation parameters ****************************
siesta:
siesta: The following are some of the parameters of the simulation.
siesta: A complete list of the parameters used, including default values,
siesta: can be found in file out.fdf
siesta:
redata: Non-Collinear-spin run           =     F
redata: SpinPolarized (Up/Down) run      =     F
redata: Number of spin components        =     1
redata: Long output                      =     F
redata: Number of Atomic Species         =        2
redata: Charge density info will appear in .RHO file
redata: Write Mulliken Pop.              =     NO
redata: Mesh Cutoff                      =   200.0000  Ry
redata: Net charge of the system         =     0.0000 |e|
redata: Max. number of SCF Iter          =      500
redata: SCF convergence failure will abort job
redata: Performing Pulay mixing using    =    10 iterations
redata: Mix DM in first SCF step ?       =     F
redata: Write Pulay info on disk?        =     F
redata: Discard 1st Pulay DM after  kick =     F
redata: New DM Mixing Weight             =     0.0500
redata: New DM Occupancy tolerance       = 0.000000000001
redata: No kicks to SCF
redata: DM Mixing Weight for Kicks       =     0.5000
redata: DM Tolerance for SCF             =     0.000100
redata: Require Energy convergence for SCF =     F
redata: DM Energy tolerance for SCF      =     0.000100 eV
redata: Require Harris convergence for SCF =     F
redata: DM Harris energy tolerance for SCF =     0.000100 eV
redata: Using Saved Data (generic)   =     F
redata: Use continuation files for DM    =     T
redata: Neglect nonoverlap interactions  =     F
redata: Method of Calculation            =     Diagonalization
redata: Divide and Conquer               =     T
redata: Electronic Temperature           =     0.0019  Ry
redata: Fix the spin of the system       =     F
redata: Dynamics option                  =     Verlet MD run
redata: Initial MD time step             =        1
redata:   Final MD time step             =        1
redata: Length of MD time step           =     1.0000  fs
redata: Initial Temperature of MD run    =     0.0000  K
redata: Perform a MD quench              =     F
redata: ***********************************************************************
Total number of electrons:   270.000000
Total ionic charge:   270.000000

* ProcessorY, Blocksize:    2  24

k-point displ. along   1 input, could be:     0.00    0.50
k-point displ. along   2 input, could be:     0.00    0.50
 Kpoints in:          364 . Kpoints trimmed:          352

siesta: k-grid: Number of k-points =   352
siesta: k-grid: Cutoff (effective) =     5.000 Ang
siesta: k-grid: Supercell and displacements
siesta: k-grid:   26   0   0      0.000
siesta: k-grid:    0  26   0      0.000
siesta: k-grid:    0   0   1      0.000
Naive supercell factors:     2    2    2

superc: Internal auxiliary supercell:     2 x     2 x     2  =       8
superc: Number of atoms, orbitals, and projectors:    576   7488   9216

* Maximum dynamic memory allocated =     6 MB

siesta:                 ==============================
                            Begin MD step =      1
                        ==============================

superc: Internal auxiliary supercell:     2 x     2 x     2  =       8
superc: Number of atoms, orbitals, and projectors:    576   7488   9216

outcell: Unit cell vectors (Ang):
       14.785000    0.000000    0.000000
        7.393000   12.805052    0.000000
        0.000000    0.000000   10.000000

outcell: Cell vector modules (Ang)   :   14.785000   14.786000   10.000000
outcell: Cell angles (23,13,12) (deg):     90.0000     90.0000     60.0000
outcell: Cell volume (Ang**3)        :   1893.2269
New_DM. Step:     1
Initializing Density Matrix...

InitMesh: MESH =   120 x   120 x    90 =     1296000
InitMesh: Mesh cutoff (required, used) =   200.000   223.865 Ry

* Maximum dynamic memory allocated =   219 MB

stepf: Fermi-Dirac step function

siesta: Program's energy decomposition (eV):
siesta: Ebs     =     -4338.763947
siesta: Eions   =     16097.990269
siesta: Ena     =      3563.275432
siesta: Ekin    =      5428.893495
siesta: Enl     =       373.637987
siesta: DEna    =        -0.000007
siesta: DUscf   =         0.000000
siesta: DUext   =         0.000000
siesta: Exc     =     -3983.451938
siesta: eta*DQ  =         0.000000
siesta: Emadel  =         0.000000
siesta: Emeta   =         0.000000
siesta: Emolmec =         0.000000
siesta: Ekinion =         0.000000
siesta: Eharris =    -10638.860054
siesta: Etot    =    -10715.635300
siesta: FreeEng =    -10715.635300

siesta: iscf   Eharris(eV)      E_KS(eV)   FreeEng(eV)   dDmax  Ef(eV)
siesta:    1   -10638.8601   -10715.6353   -10715.6353  1.9044 -8.7052
timer: Routine,Calls,Time,% = IterSCF        1    6882.533  99.82
elaps: Routine,Calls,Wall,% = IterSCF        1     861.442  99.82
siesta:    2   -10648.2097   -10573.5517   -10573.5765  0.8063 -4.2435
siesta:    3   -10605.3176   -10636.9220   -10636.9566  0.6991 -6.1389
siesta:    4   -10605.1808   -10636.9200   -10636.9749  0.6982 -6.1426
siesta:    5   -10599.5412   -10608.2813   -10608.3365  0.2569 -5.8065
siesta:    6   -10601.9746   -10603.2273   -10603.2826  0.1513 -6.0107
siesta:    7   -10600.8751   -10601.9934   -10602.0372  0.1177 -6.0346
siesta:    8   -10599.3137   -10597.4134   -10597.4582  0.0122 -6.1469
siesta:    9   -10599.2730   -10597.5924   -10597.6495  0.0113 -6.1483
siesta:   10   -10599.1229   -10598.1053   -10598.1603  0.0062 -6.1330
siesta:   11   -10599.1218   -10598.3646   -10598.4181  0.0050 -6.1265
siesta:   12   -10599.1167   -10598.6890   -10598.7422  0.0034 -6.1205
siesta:   13   -10599.1127   -10599.0275   -10599.0810  0.0013 -6.1142
siesta:   14   -10599.1125   -10599.0981   -10599.1522  0.0007 -6.1141
siesta:   15   -10599.1123   -10599.1380   -10599.1922  0.0005 -6.1151
siesta:   16   -10599.1123   -10599.1236   -10599.1779  0.0002 -6.1153
siesta:   17   -10599.1123   -10599.1114   -10599.1658  0.0002 -6.1154
siesta:   18   -10599.1123   -10599.1119   -10599.1662  0.0001 -6.1155

siesta: E_KS(eV) =           -10599.1198

siesta: E_KS - E_eggbox =    -10599.1198

siesta: Atomic forces (eV/Ang):
----------------------------------------
   Tot    0.362047   -0.117813    0.000000
----------------------------------------
   Max    3.756545
   Res    1.580638    sqrt( Sum f_i^2 / 3N )
----------------------------------------
   Max    3.756545    constrained

Stress-tensor-Voigt (kbar):     -205.16     -189.38       -0.50      -13.29        0.00        0.00
(Free)E + p*V (eV/cell)   -10443.5726
Target enthalpy (eV/cell)   -10599.1742

siesta: Stress tensor (static) (eV/Ang**3):
        -0.128049   -0.008295    0.000000
        -0.008295   -0.118202    0.000000
         0.000000    0.000000   -0.000314

siesta: Pressure (static):        131.68196274  kBar

siesta: Stress tensor (total) (eV/Ang**3):
        -0.128049   -0.008295    0.000000
        -0.008295   -0.118202    0.000000
         0.000000    0.000000   -0.000314

siesta: Pressure (total):        131.68196274  kBar

siesta: Temp_ion =       0.000 K

* Maximum dynamic memory allocated =   234 MB

siesta: Program's energy decomposition (eV):
siesta: Ebs     =     -3467.034603
siesta: Eions   =     16097.990269
siesta: Ena     =      3563.275432
siesta: Ekin    =      6978.728011
siesta: Enl     =      -593.390794
siesta: DEna    =      -388.945703
siesta: DUscf   =        45.016844
siesta: DUext   =         0.000000
siesta: Exc     =     -4105.813335
siesta: eta*DQ  =         0.000000
siesta: Emadel  =         0.000000
siesta: Emeta   =         0.000000
siesta: Emolmec =         0.000000
siesta: Ekinion =         0.000000
siesta: Eharris =    -10599.112317
siesta: Etot    =    -10599.119814
siesta: FreeEng =    -10599.174161

siesta: Final energy (eV):
siesta:  Band Struct. =   -3467.034603
siesta:       Kinetic =    6978.728011
siesta:       Hartree =   20275.947407
siesta:    Ext. field =       0.000000
siesta:   Exch.-corr. =   -4105.813335
siesta:  Ion-electron =  -46825.722087
siesta:       Ion-ion =   13077.740190
siesta:       Ekinion =       0.000000
siesta:         Total =  -10599.119814

siesta: Atomic forces (eV/Ang):
siesta:      1   -2.593730   -1.515444    0.000000
siesta:      2    3.737261    2.150618    0.000000
siesta:      3   -1.331842   -0.778148    0.000000
siesta:      4    3.734714    2.147612    0.000000
siesta:      5   -1.343515   -0.794349    0.000000
siesta:      6   -2.573040   -1.499457    0.000000
siesta:      7    3.734759    2.145031    0.000000
siesta:      8   -1.353635   -0.796822    0.000000
siesta:      9   -2.572964   -1.498950    0.000000
siesta:     10   -2.575451   -1.493244    0.000000
siesta:     11    3.731225    2.120347    0.000000
siesta:     12   -1.365655   -0.795989    0.000000
siesta:     13   -2.570680   -1.515311    0.000000
siesta:     14    3.737718    2.123166    0.000000
siesta:     15   -1.330089   -0.800362    0.000000
siesta:     16   -2.608598   -1.513182    0.000000
siesta:     17    3.734310    2.121094    0.000000
siesta:     18   -1.355063   -0.796687    0.000000
siesta:     19    3.715533    2.152082    0.000000
siesta:     20   -1.367270   -0.791949    0.000000
siesta:     21   -2.574242   -1.496547    0.000000
siesta:     22    3.737586    2.145159    0.000000
siesta:     23   -1.339371   -0.797932    0.000000
siesta:     24   -2.611156   -1.491028    0.000000
siesta:     25    3.732755    2.145365    0.000000
siesta:     26   -1.367096   -0.791938    0.000000
siesta:     27   -2.587216   -1.492796    0.000000
siesta:     28    3.733195    2.145987    0.000000
siesta:     29   -1.368211   -0.790141    0.000000
siesta:     30   -2.570351   -1.500686    0.000000
siesta:     31    3.700970    2.160095    0.000000
siesta:     32   -1.371227   -0.791124    0.000000
siesta:     33    3.718068    2.152264    0.000000
siesta:     34   -1.367926   -0.789846    0.000000
siesta:     35   -2.570289   -1.500714    0.000000
siesta:     36    3.697700    2.161290    0.000000
siesta:     37   -1.371066   -0.791853    0.000000
siesta:     38   -2.587282   -1.496140    0.000000
siesta:     39    3.738759    2.146857    0.000000
siesta:     40   -1.329654   -0.799613    0.000000
siesta:     41    3.756545    2.141402    0.000000
siesta:     42   -1.330365   -0.779390    0.000000
siesta:     43   -2.614118   -1.490016    0.000000
siesta:     44   -2.573555   -1.499191    0.000000
siesta:     45   -2.572935   -1.498913    0.000000
siesta:     46   -2.603286   -1.490485    0.000000
siesta:     47    3.733077    2.145117    0.000000
siesta:     48   -1.366244   -0.792232    0.000000
siesta:     49    3.731688    2.145503    0.000000
siesta:     50   -1.366094   -0.793010    0.000000
siesta:     51    3.732306    2.147667    0.000000
siesta:     52   -1.368482   -0.774365    0.000000
siesta:     53   -2.574578   -1.496949    0.000000
siesta:     54   -2.615297   -1.488851    0.000000
siesta:     55    0.226719    0.134206    0.000000
siesta:     56    0.244187    0.131412    0.000000
siesta:     57    0.242800    0.130175    0.000000
siesta:     58    0.227628    0.163493    0.000000
siesta:     59    0.228378    0.135549    0.000000
siesta:     60    0.224495    0.134792    0.000000
siesta:     61    0.227201    0.138098    0.000000
siesta:     62    0.222904    0.136205    0.000000
siesta:     63    0.225561    0.138492    0.000000
siesta:     64    0.264242    0.122688    0.000000
siesta:     65    0.260762    0.123565    0.000000
siesta:     66    0.227370    0.139240    0.000000
siesta:     67    0.226112    0.159953    0.000000
siesta:     68    0.226962    0.138192    0.000000
siesta:     69    0.226853    0.137763    0.000000
siesta:     70    0.226595    0.137956    0.000000
siesta:     71    0.229167    0.138432    0.000000
siesta:     72    0.207516    0.168976    0.000000
siesta: ----------------------------------------
siesta:    Tot    0.362047   -0.117813    0.000000

siesta: Stress tensor (static) (eV/Ang**3):
siesta:    -0.128049   -0.008295    0.000000
siesta:    -0.008295   -0.118202    0.000000
siesta:     0.000000    0.000000   -0.000314

siesta: Cell volume =       1893.226895 Ang**3

siesta: Pressure (static):
siesta:                Solid            Molecule  Units
siesta:           0.00089514          0.00095589  Ry/Bohr**3
siesta:           0.08218853          0.08776696  eV/Ang**3
siesta:         131.68196274        140.61969457  kBar
(Free)E+ p_basis*V_orbitals  =      -10562.749382
(Free)Eharris+ p_basis*V_orbitals  =      -10562.749835

siesta: Electric dipole (a.u.)  =    0.000000    0.000000    0.000000
siesta: Electric dipole (Debye) =    0.000000    0.000000    0.000000

* Maximum dynamic memory allocated : Node    0 =   234 MB
* Maximum dynamic memory allocated : Node    1 =    84 MB
* Maximum dynamic memory allocated : Node    2 =    87 MB
* Maximum dynamic memory allocated : Node    3 =   221 MB
* Maximum dynamic memory allocated : Node    4 =   233 MB
* Maximum dynamic memory allocated : Node    5 =    84 MB
* Maximum dynamic memory allocated : Node    6 =    88 MB
* Maximum dynamic memory allocated : Node    7 =   215 MB

* Maximum memory occured during matrixMtoO                    

timer: CPU execution times:
timer:  Routine       Calls   Time/call    Tot.time        %
timer:  siesta            1  122866.564  122866.564   100.00
timer:  Setup             1       3.841       3.841     0.00
timer:  bands             1       0.017       0.017     0.00
timer:  writewave         1       0.044       0.044     0.00
timer:  KSV_init          1       0.005       0.005     0.00
timer:  IterMD            1  122854.810  122854.810    99.99
timer:  hsparse           1       0.396       0.396     0.00
timer:  overlap           1       7.757       7.757     0.01
timer:  IterSCF          18    6813.304  122639.471    99.82
timer:  kinefsm           2       4.011       8.023     0.01
timer:  nlefsm            2      21.139      42.277     0.03
timer:  DHSCF            19     118.131    2244.496     1.83
timer:  DHSCF1            1       0.993       0.993     0.00
timer:  DHSCF2            1      43.359      43.359     0.04
timer:  REORD           154       0.010       1.544     0.00
timer:  POISON           20       2.251      45.018     0.04
timer:  DHSCF3           19     113.581    2158.033     1.76
timer:  rhoofd           19      22.533     428.126     0.35
timer:  cellXC           19       3.563      67.703     0.06
timer:  vmat             19      58.933    1119.734     0.91
timer:  MolMec            2       0.000       0.000     0.00
timer:  diagon           18    6693.465  120482.369    98.06
timer:  c-eigval       6336       6.701   42455.520    34.55
timer:  c-buildHS      6336       0.125     793.179     0.65
timer:  cdiag         12672       6.888   87285.330    71.04
timer:  cdiag1        12672       0.426    5393.291     4.39
timer:  cdiag2        12672       1.914   24256.651    19.74
timer:  cdiag3        12672       3.958   50158.268    40.82
timer:  cdiag4        12672       0.227    2882.856     2.35
timer:  c-eigvec       6336       7.277   46109.893    37.53
timer:  c-buildD       6336       5.029   31864.100    25.93
timer:  DHSCF4            1      41.052      41.052     0.03
timer:  dfscf             1      38.383      38.383     0.03
timer:  overfsm           1       0.462       0.462     0.00
timer:  optical           1       6.962       6.962     0.01
  

elaps: ELAPSED times:
elaps:  Routine       Calls   Time/call    Tot.time        %
elaps:  siesta            1   15376.750   15376.750   100.00
elaps:  Setup             1       0.496       0.496     0.00
elaps:  bands             1       0.002       0.002     0.00
elaps:  writewave         1       0.006       0.006     0.00
elaps:  KSV_init          1       0.001       0.001     0.00
elaps:  IterMD            1   15375.256   15375.256    99.99
elaps:  hsparse           1       0.049       0.049     0.00
elaps:  overlap           1       0.986       0.986     0.01
elaps:  IterSCF          18     852.692   15348.454    99.82
elaps:  kinefsm           2       0.508       1.017     0.01
elaps:  nlefsm            2       2.668       5.337     0.03
elaps:  DHSCF            19      14.987     284.749     1.85
elaps:  DHSCF1            1       0.126       0.126     0.00
elaps:  DHSCF2            1       5.423       5.423     0.04
elaps:  REORD           154       0.001       0.204     0.00
elaps:  POISON           20       0.283       5.653     0.04
elaps:  DHSCF3           19      14.209     269.976     1.76
elaps:  rhoofd           19       4.847      92.100     0.60
elaps:  cellXC           19       0.445       8.454     0.05
elaps:  vmat             19       7.372     140.071     0.91
elaps:  MolMec            2       0.000       0.000     0.00
elaps:  diagon           18     837.702   15078.642    98.06
elaps:  c-eigval       6336       0.838    5311.865    34.54
elaps:  c-buildHS      6336       0.017     108.187     0.70
elaps:  cdiag         12672       0.850   10774.873    70.07
elaps:  cdiag1        12672       0.053     675.279     4.39
elaps:  cdiag2        12672       0.240    3035.131    19.74
elaps:  cdiag3        12672       0.496    6284.260    40.87
elaps:  cdiag4        12672       0.029     368.618     2.40
elaps:  c-eigvec       6336       0.891    5644.305    36.71
elaps:  c-buildD       6336       0.649    4115.089    26.76
elaps:  DHSCF4            1       9.082       9.082     0.06
elaps:  dfscf             1       8.575       8.575     0.06
elaps:  overfsm           1       0.057       0.057     0.00
elaps:  optical           1       0.001       0.001     0.00
  
>> End of run:   4-DEC-2015   1:17:51
