Siesta Version:                                        siesta-3.2-pl-3
Architecture  : x86_64-unknown-linux-gnu--unknown
Compiler flags: mpiifort -g -O2 -fPIC -xSSE4.1 -fp-model source -shared-intel 
PARALLEL version

* Running on    8 nodes in parallel
>> Start of run:  29-NOV-2015  10:56:06

                           ***********************       
                           *  WELCOME TO SIESTA  *       
                           ***********************       

reinit: Reading from standard input
************************** Dump of input data file ****************************
#(1) General system descriptors
SystemName            GRP_doping    # Descriptive name of the system
SystemLabel           GRP_doping    # Short name for naming files
%include STRUCT.fdf
%include KPT.fdf
%include BASIS.fdf
#%include TS.fdf # for transiesta calculation
#(4) DFT, Grid, SCF
XC.functional         GGA           # LDA or GGA (default = LDA)
XC.authors            PBE           # CA (Ceperley-Aldr) = PZ
                                    #    (Perdew-Zunger) - LDA - Default
                                    # PW92 (Perdew-Wang-92) - LDA
                                    # PBE (Perdew-Burke-Ernzerhof) - GGA
MeshCutoff            200.000000    Ry      # Default: 50.0 Ry ~ 0.444 Bohr
                                    #         100.0 Ry ~ 0.314 Bohr
MaxSCFIterations      500           # Default: 50
DM.MixingWeight       0.05          # Default: 0.25
DM.NumberPulay        10            # Default: 0
DM.PulayOnFile        F             # SystemLabel.P1, SystemLabel.P2
DM.Tolerance          1.d-4         # Default: 1.d-4
DM.UseSaveDM          .true.        # because of the bug
SCFMustConverge       .true.
NeglNonOverlapInt     F             # Default: F
#(5) Eigenvalue problem: order-N or diagonalization
SolutionMethod        Diagon        # or Transiesta
ElectronicTemperature 300.0 K       # Default: 300.0 K
#(6) Molecular dynamics and relaxations
#MD.TypeOfRun          CG            # Type of dynamics:
#MD.VariableCell       F
#MD.NumCGsteps         0           # 0 for single-point / 100 for gopt
#MD.MaxCGDispl         0.2 Bohr      # Default: 0.2 Bohr
#MD.MaxForceTol        0.02 eV/Ang   # Default: 0.04 eV/Ang
#MD.MaxStressTol       1.0 GPa       # Default: 1.0 GPa
# Geometry Constraints
#%block GeometryConstraints
#	position from 1 to 44
#%endblock GeometryConstraints
************************** End of input data file *****************************

reinit: -----------------------------------------------------------------------
reinit: System Name: GRP_doping
reinit: -----------------------------------------------------------------------
reinit: System Label: GRP_doping                                                  
reinit: -----------------------------------------------------------------------

initatom: Reading input for the pseudopotentials and atomic orbitals ----------
 Species number:            1  Label: C Atomic number:           6
 Species number:            2  Label: N Atomic number:           7
Ground state valence configuration:   2s02  2p02
Reading pseudopotential information in formatted form from C.psf

Valence configuration for pseudopotential generation:
2s( 2.00) rc: 1.54
2p( 2.00) rc: 1.54
3d( 0.00) rc: 1.54
4f( 0.00) rc: 1.54
Ground state valence configuration:   2s02  2p03
Reading pseudopotential information in formatted form from N.psf

Valence configuration for pseudopotential generation:
2s( 2.00) rc: 1.48
2p( 3.00) rc: 1.48
3d( 0.00) rc: 1.48
4f( 0.00) rc: 1.48
For C, standard SIESTA heuristics set lmxkb to 3
 (one more than the basis l, including polarization orbitals).
Use PS.lmax or PS.KBprojectors blocks to override.
For N, standard SIESTA heuristics set lmxkb to 3
 (one more than the basis l, including polarization orbitals).
Use PS.lmax or PS.KBprojectors blocks to override.

<basis_specs>
===============================================================================
C                    Z=   6    Mass=  12.010        Charge= 0.17977+309
Lmxo=1 Lmxkb= 3    BasisType=split      Semic=F
L=0  Nsemic=0  Cnfigmx=2
          n=1  nzeta=2  polorb=0
            splnorm:   0.15000    
               vcte:    0.0000    
               rinn:    0.0000    
                rcs:    0.0000      0.0000    
            lambdas:    1.0000      1.0000    
L=1  Nsemic=0  Cnfigmx=2
          n=1  nzeta=2  polorb=1
            splnorm:   0.15000    
               vcte:    0.0000    
               rinn:    0.0000    
                rcs:    0.0000      0.0000    
            lambdas:    1.0000      1.0000    
-------------------------------------------------------------------------------
L=0  Nkbl=1  erefs: 0.17977+309
L=1  Nkbl=1  erefs: 0.17977+309
L=2  Nkbl=1  erefs: 0.17977+309
L=3  Nkbl=1  erefs: 0.17977+309
===============================================================================
</basis_specs>

atom: Called for C                     (Z =   6)

read_vps: Pseudopotential generation method:
read_vps: ATM3      Troullier-Martins                       
Total valence charge:    4.00000

read_vps: Pseudopotential includes a core correction:
read_vps: Pseudo-core for xc-correction

xc_check: Exchange-correlation functional:
xc_check: GGA Perdew, Burke & Ernzerhof 1996
V l=0 = -2*Zval/r beyond r=  1.5227
V l=1 = -2*Zval/r beyond r=  1.5227
V l=2 = -2*Zval/r beyond r=  1.5227
V l=3 = -2*Zval/r beyond r=  1.5038
All V_l potentials equal beyond r=  1.5227
This should be close to max(r_c) in ps generation
All pots = -2*Zval/r beyond r=  1.5227

VLOCAL1: 99.0% of the norm of Vloc inside     18.722 Ry
VLOCAL1: 99.9% of the norm of Vloc inside     42.668 Ry
atom: Maximum radius for 4*pi*r*r*local-pseudopot. charge    1.83678
atom: Maximum radius for r*vlocal+2*Zval:    1.58088
GHOST: No ghost state for L =  0
GHOST: No ghost state for L =  1
GHOST: No ghost state for L =  2
GHOST: No ghost state for L =  3

KBgen: Kleinman-Bylander projectors: 
   l= 0   rc=  1.704034   el= -1.009801   Ekb=  5.335044   kbcos=  0.316824
   l= 1   rc=  1.704034   el= -0.388707   Ekb= -3.785862   kbcos= -0.366464
   l= 2   rc=  1.791422   el=  0.001971   Ekb= -0.970471   kbcos= -0.009212
   l= 3   rc=  1.859892   el=  0.003065   Ekb= -0.399525   kbcos= -0.001223

KBgen: Total number of  Kleinman-Bylander projectors:   16
atom: -------------------------------------------------------------------------

atom: SANKEY-TYPE ORBITALS:
atom: Selected multiple-zeta basis: split     

SPLIT: Orbitals with angular momentum L= 0

SPLIT: Basis orbitals for state 2s

SPLIT: PAO cut-off radius determined from an
SPLIT: energy shift=  0.007350 Ry

   izeta = 1
                 lambda =    1.000000
                     rc =    4.632753
                 energy =   -1.002270
                kinetic =    0.855760
    potential(screened) =   -1.858031
       potential(ionic) =   -5.417575

   izeta = 2
                 rmatch =    3.431921
              splitnorm =    0.150000
                 energy =   -0.867111
                kinetic =    1.300804
    potential(screened) =   -2.167915
       potential(ionic) =   -5.962684

SPLIT: Orbitals with angular momentum L= 1

SPLIT: Basis orbitals for state 2p

SPLIT: PAO cut-off radius determined from an
SPLIT: energy shift=  0.007350 Ry

   izeta = 1
                 lambda =    1.000000
                     rc =    5.658549
                 energy =   -0.381140
                kinetic =    2.399701
    potential(screened) =   -2.780841
       potential(ionic) =   -6.206085

   izeta = 2
                 rmatch =    3.653288
              splitnorm =    0.150000
                 energy =   -0.249149
                kinetic =    3.542762
    potential(screened) =   -3.791911
       potential(ionic) =   -7.581078

POLgen: Perturbative polarization orbital with L=  2

POLgen: Polarization orbital for state 2p

   izeta = 1
                     rc =    5.658549
                 energy =    1.109913
                kinetic =    2.304789
    potential(screened) =   -1.194876
       potential(ionic) =   -4.013592
atom: Total number of Sankey-type orbitals: 13

atm_pop: Valence configuration (for local Pseudopot. screening):
 2s( 2.00)                                                            
 2p( 2.00)                                                            
Vna: chval, zval:    4.00000   4.00000

Vna:  Cut-off radius for the neutral-atom potential:   5.658549
comcore: Pseudo-core radius Rcore=  1.791422

atom: _________________________________________________________________________

<basis_specs>
===============================================================================
N                    Z=   7    Mass=  14.010        Charge= 0.17977+309
Lmxo=1 Lmxkb= 3    BasisType=split      Semic=F
L=0  Nsemic=0  Cnfigmx=2
          n=1  nzeta=2  polorb=0
            splnorm:   0.15000    
               vcte:    0.0000    
               rinn:    0.0000    
                rcs:    0.0000      0.0000    
            lambdas:    1.0000      1.0000    
L=1  Nsemic=0  Cnfigmx=2
          n=1  nzeta=2  polorb=1
            splnorm:   0.15000    
               vcte:    0.0000    
               rinn:    0.0000    
                rcs:    0.0000      0.0000    
            lambdas:    1.0000      1.0000    
-------------------------------------------------------------------------------
L=0  Nkbl=1  erefs: 0.17977+309
L=1  Nkbl=1  erefs: 0.17977+309
L=2  Nkbl=1  erefs: 0.17977+309
L=3  Nkbl=1  erefs: 0.17977+309
===============================================================================
</basis_specs>

atom: Called for N                     (Z =   7)

read_vps: Pseudopotential generation method:
read_vps: ATM3      Troullier-Martins                       
Total valence charge:    5.00000

read_vps: Pseudopotential includes a core correction:
read_vps: Pseudo-core for xc-correction

xc_check: Exchange-correlation functional:
xc_check: GGA Perdew, Burke & Ernzerhof 1996
V l=0 = -2*Zval/r beyond r=  1.4606
V l=1 = -2*Zval/r beyond r=  1.4606
V l=2 = -2*Zval/r beyond r=  1.4606
V l=3 = -2*Zval/r beyond r=  1.4606
All V_l potentials equal beyond r=  1.4606
This should be close to max(r_c) in ps generation
All pots = -2*Zval/r beyond r=  1.4606

VLOCAL1: 99.0% of the norm of Vloc inside     20.347 Ry
VLOCAL1: 99.9% of the norm of Vloc inside     46.372 Ry
atom: Maximum radius for 4*pi*r*r*local-pseudopot. charge    1.76189
atom: Maximum radius for r*vlocal+2*Zval:    1.53550
GHOST: No ghost state for L =  0
GHOST: No ghost state for L =  1
GHOST: No ghost state for L =  2
GHOST: No ghost state for L =  3

KBgen: Kleinman-Bylander projectors: 
   l= 0   rc=  1.634559   el= -1.363963   Ekb=  5.296955   kbcos=  0.335621
   l= 1   rc=  1.614250   el= -0.521451   Ekb= -5.259161   kbcos= -0.433408
   l= 2   rc=  1.718383   el=  0.001991   Ekb= -1.271464   kbcos= -0.007566
   l= 3   rc=  1.761893   el=  0.003093   Ekb= -0.494769   kbcos= -0.001015

KBgen: Total number of  Kleinman-Bylander projectors:   16
atom: -------------------------------------------------------------------------

atom: SANKEY-TYPE ORBITALS:
atom: Selected multiple-zeta basis: split     

SPLIT: Orbitals with angular momentum L= 0

SPLIT: Basis orbitals for state 2s

SPLIT: PAO cut-off radius determined from an
SPLIT: energy shift=  0.007350 Ry

   izeta = 1
                 lambda =    1.000000
                     rc =    4.071465
                 energy =   -1.356470
                kinetic =    1.176977
    potential(screened) =   -2.533447
       potential(ionic) =   -8.057990

   izeta = 2
                 rmatch =    2.905100
              splitnorm =    0.150000
                 energy =   -1.158343
                kinetic =    1.813009
    potential(screened) =   -2.971352
       potential(ionic) =   -8.901931

SPLIT: Orbitals with angular momentum L= 1

SPLIT: Basis orbitals for state 2p

SPLIT: PAO cut-off radius determined from an
SPLIT: energy shift=  0.007350 Ry

   izeta = 1
                 lambda =    1.000000
                     rc =    4.972977
                 energy =   -0.513884
                kinetic =    3.441732
    potential(screened) =   -3.955616
       potential(ionic) =   -9.287901

   izeta = 2
                 rmatch =    3.054066
              splitnorm =    0.150000
                 energy =   -0.318226
                kinetic =    5.125348
    potential(screened) =   -5.443573
       potential(ionic) =  -11.380999

POLgen: Perturbative polarization orbital with L=  2

POLgen: Polarization orbital for state 2p

   izeta = 1
                     rc =    4.972977
                 energy =    1.607437
                kinetic =    3.268125
    potential(screened) =   -1.660688
       potential(ionic) =   -5.973652
atom: Total number of Sankey-type orbitals: 13

atm_pop: Valence configuration (for local Pseudopot. screening):
 2s( 2.00)                                                            
 2p( 3.00)                                                            
Vna: chval, zval:    5.00000   5.00000

Vna:  Cut-off radius for the neutral-atom potential:   4.972977
comcore: Pseudo-core radius Rcore=  1.554824

atom: _________________________________________________________________________

prinput: Basis input ----------------------------------------------------------

PAO.BasisType split     

%block ChemicalSpeciesLabel
    1    6 C                       # Species index, atomic number, species label
    2    7 N                       # Species index, atomic number, species label
%endblock ChemicalSpeciesLabel

%block PAO.Basis                 # Define Basis set
C                     2                    # Species label, number of l-shells
 n=2   0   2                         # n, l, Nzeta 
   4.633      3.432   
   1.000      1.000   
 n=2   1   2 P   1                   # n, l, Nzeta, Polarization, NzetaPol
   5.659      3.653   
   1.000      1.000   
N                     2                    # Species label, number of l-shells
 n=2   0   2                         # n, l, Nzeta 
   4.071      2.905   
   1.000      1.000   
 n=2   1   2 P   1                   # n, l, Nzeta, Polarization, NzetaPol
   4.973      3.054   
   1.000      1.000   
%endblock PAO.Basis

prinput: ----------------------------------------------------------------------

coor:   Atomic-coordinates input format  =     Cartesian coordinates
coor:                                          (in Angstroms)

siesta: Atomic coordinates (Bohr) and species
siesta:      2.23554   1.32097   0.00000  1        1
siesta:     32.50328  21.48508   0.00000  1        2
siesta:     34.83141  22.82873   0.00000  1        3
siesta:     34.83116  17.45226   0.00000  1        4
siesta:     37.15930  18.79590   0.00000  1        5
siesta:     32.50291  13.41944   0.00000  1        6
siesta:     34.83104  14.76308   0.00000  1        7
siesta:     30.17465   9.38661   0.00000  1        8
siesta:     32.50278  10.73026   0.00000  1        9
siesta:     27.84639   5.35379   0.00000  1       10
siesta:     30.17453   6.69743   0.00000  1       11
siesta:     27.84714  21.48508   0.00000  1       12
siesta:     30.17527  22.82873   0.00000  1       13
siesta:      6.89168   1.32097   0.00000  1       14
siesta:      9.21981   2.66461   0.00000  1       15
siesta:     11.54782   1.32097   0.00000  1       16
siesta:     16.20396   1.32097   0.00000  1       17
siesta:     18.53210   2.66461   0.00000  1       18
siesta:     23.19013   2.66461   0.00000  1       19
siesta:     25.51813   1.32097   0.00000  1       20
siesta:     27.84627   2.66461   0.00000  1       21
siesta:      4.56380   5.35379   0.00000  1       22
siesta:      6.89193   6.69743   0.00000  1       23
siesta:      9.21994   5.35379   0.00000  1       24
siesta:     11.54807   6.69743   0.00000  1       25
siesta:     13.87608   5.35379   0.00000  1       26
siesta:     16.20421   6.69743   0.00000  1       27
siesta:     18.53411   5.35379   0.00000  1       28
siesta:     20.86224   6.69743   0.00000  1       29
siesta:     23.19025   5.35379   0.00000  1       30
siesta:     25.51838   6.69743   0.00000  1       31
siesta:      9.22019  10.73026   0.00000  1       32
siesta:     11.54820   9.38661   0.00000  1       33
siesta:     13.87633  10.73026   0.00000  1       34
siesta:     18.53247  10.73026   0.00000  1       35
siesta:     20.86237   9.38661   0.00000  1       36
siesta:     23.19050  10.73026   0.00000  1       37
siesta:      9.22031  13.41944   0.00000  1       38
siesta:     11.54845  14.76308   0.00000  1       39
siesta:     13.87645  13.41944   0.00000  1       40
siesta:     16.20459  14.76308   0.00000  1       41
siesta:     18.53448  13.41944   0.00000  1       42
siesta:     20.86262  14.76308   0.00000  1       43
siesta:     13.87670  18.79590   0.00000  1       44
siesta:     16.20471  17.45226   0.00000  1       45
siesta:     18.53284  18.79590   0.00000  1       46
siesta:     13.87683  21.48508   0.00000  1       47
siesta:     16.20496  22.82873   0.00000  1       48
siesta:     18.53486  21.48508   0.00000  1       49
siesta:     20.86299  22.82873   0.00000  1       50
siesta:     27.84664  10.73026   0.00000  1       51
siesta:     23.19063  13.41944   0.00000  1       52
siesta:     25.51876  14.76308   0.00000  1       53
siesta:     23.19088  18.79590   0.00000  1       54
siesta:     27.84677  13.41944   0.00000  1       55
siesta:     30.17490  14.76308   0.00000  1       56
siesta:     25.51888  17.45226   0.00000  1       57
siesta:     27.84702  18.79590   0.00000  1       58
siesta:     23.19100  21.48508   0.00000  1       59
siesta:     25.51913  22.82873   0.00000  1       60
siesta:     32.50316  18.79590   0.00000  1       61
siesta:     37.16131  21.48508   0.00000  1       62
siesta:     39.48945  22.82873   0.00000  1       63
siesta:      4.56367   2.66461   0.00000  2       64
siesta:     13.87595   2.66461   0.00000  2       65
siesta:     20.86199   1.32097   0.00000  2       66
siesta:      6.89205   9.38661   0.00000  2       67
siesta:     16.20434   9.38661   0.00000  2       68
siesta:     11.54857  17.45226   0.00000  2       69
siesta:     25.51851   9.38661   0.00000  2       70
siesta:     20.86274  17.45226   0.00000  2       71
siesta:     30.17503  17.45226   0.00000  2       72

siesta: System type = slab      

initatomlists: Number of atoms, orbitals, and projectors:     72   936  1152

siesta: ******************** Simulation parameters ****************************
siesta:
siesta: The following are some of the parameters of the simulation.
siesta: A complete list of the parameters used, including default values,
siesta: can be found in file out.fdf
siesta:
redata: Non-Collinear-spin run           =     F
redata: SpinPolarized (Up/Down) run      =     F
redata: Number of spin components        =     1
redata: Long output                      =     F
redata: Number of Atomic Species         =        2
redata: Charge density info will appear in .RHO file
redata: Write Mulliken Pop.              =     NO
redata: Mesh Cutoff                      =   200.0000  Ry
redata: Net charge of the system         =     0.0000 |e|
redata: Max. number of SCF Iter          =      500
redata: SCF convergence failure will abort job
redata: Performing Pulay mixing using    =    10 iterations
redata: Mix DM in first SCF step ?       =     F
redata: Write Pulay info on disk?        =     F
redata: Discard 1st Pulay DM after  kick =     F
redata: New DM Mixing Weight             =     0.0500
redata: New DM Occupancy tolerance       = 0.000000000001
redata: No kicks to SCF
redata: DM Mixing Weight for Kicks       =     0.5000
redata: DM Tolerance for SCF             =     0.000100
redata: Require Energy convergence for SCF =     F
redata: DM Energy tolerance for SCF      =     0.000100 eV
redata: Require Harris convergence for SCF =     F
redata: DM Harris energy tolerance for SCF =     0.000100 eV
redata: Using Saved Data (generic)   =     F
redata: Use continuation files for DM    =     T
redata: Neglect nonoverlap interactions  =     F
redata: Method of Calculation            =     Diagonalization
redata: Divide and Conquer               =     T
redata: Electronic Temperature           =     0.0019  Ry
redata: Fix the spin of the system       =     F
redata: Dynamics option                  =     Verlet MD run
redata: Initial MD time step             =        1
redata:   Final MD time step             =        1
redata: Length of MD time step           =     1.0000  fs
redata: Initial Temperature of MD run    =     0.0000  K
redata: Perform a MD quench              =     F
redata: ***********************************************************************
Total number of electrons:   297.000000
Total ionic charge:   297.000000

* ProcessorY, Blocksize:    2  24

k-point displ. along   1 input, could be:     0.00    0.50
k-point displ. along   2 input, could be:     0.00    0.50
 Kpoints in:          364 . Kpoints trimmed:          352

siesta: k-grid: Number of k-points =   352
siesta: k-grid: Cutoff (effective) =     5.000 Ang
siesta: k-grid: Supercell and displacements
siesta: k-grid:   26   0   0      0.000
siesta: k-grid:    0  26   0      0.000
siesta: k-grid:    0   0   1      0.000
Naive supercell factors:     2    2    2

superc: Internal auxiliary supercell:     2 x     2 x     2  =       8
superc: Number of atoms, orbitals, and projectors:    576   7488   9216

* Maximum dynamic memory allocated =     6 MB

siesta:                 ==============================
                            Begin MD step =      1
                        ==============================

superc: Internal auxiliary supercell:     2 x     2 x     2  =       8
superc: Number of atoms, orbitals, and projectors:    576   7488   9216

outcell: Unit cell vectors (Ang):
       14.785000    0.000000    0.000000
        7.393000   12.805052    0.000000
        0.000000    0.000000   10.000000

outcell: Cell vector modules (Ang)   :   14.785000   14.786000   10.000000
outcell: Cell angles (23,13,12) (deg):     90.0000     90.0000     60.0000
outcell: Cell volume (Ang**3)        :   1893.2269
New_DM. Step:     1
Initializing Density Matrix...

iodm: Reading Density Matrix from files
 Read DM has different structure. Fixing...

InitMesh: MESH =   120 x   120 x    90 =     1296000
InitMesh: Mesh cutoff (required, used) =   200.000   223.865 Ry

* Maximum dynamic memory allocated =   188 MB

stepf: Fermi-Dirac step function

siesta: Program's energy decomposition (eV):
siesta: Ebs     =     -4194.044521
siesta: Eions   =     19849.732669
siesta: Ena     =      4064.223059
siesta: Ekin    =      8471.742558
siesta: Enl     =      -986.721270
siesta: DEna    =      -308.827764
siesta: DUscf   =       156.612275
siesta: DUext   =         0.000000
siesta: Exc     =     -4276.048617
siesta: eta*DQ  =         0.000000
siesta: Emadel  =         0.000000
siesta: Emeta   =         0.000000
siesta: Emolmec =         0.000000
siesta: Ekinion =         0.000000
siesta: Eharris =    -13030.491210
siesta: Etot    =    -12728.752428
siesta: FreeEng =    -12728.752428

siesta: iscf   Eharris(eV)      E_KS(eV)   FreeEng(eV)   dDmax  Ef(eV)
siesta:    1   -13030.4912   -12728.7524   -12728.7524  0.9316 -2.8210
timer: Routine,Calls,Time,% = IterSCF        1    7964.333  99.85
elaps: Routine,Calls,Wall,% = IterSCF        1     997.127  99.85
siesta:    2   -17813.0568   -11733.7973   -11733.8324 19.7120 -9.0812
siesta:    3   -12913.3689   -12740.1478   -12740.1751  0.6399 -2.7600
siesta:    4   -12842.7755   -12747.4420   -12747.4621  0.5959 -2.8441
siesta:    5   -12758.1003   -12745.3855   -12745.4263  0.5110 -2.9596
siesta:    6   -12747.7061   -12741.0883   -12741.1150  0.4487 -2.9959
siesta:    7   -12742.3722   -12732.7047   -12732.7423  0.3546 -3.0807
siesta:    8   -12742.0835   -12729.2803   -12729.3131  0.2778 -3.2260
siesta:    9   -12741.9419   -12724.2631   -12724.2948  0.1076 -3.5310
siesta:   10   -12741.2637   -12723.9427   -12723.9743  0.0956 -3.5671
siesta:   11   -12740.3280   -12724.2512   -12724.2869  0.0752 -3.5160
siesta:   12   -12740.2549   -12724.6852   -12724.7270  0.0632 -3.4947
siesta:   13   -12740.1884   -12726.3524   -12726.3953  0.0544 -3.4715
siesta:   14   -12740.1692   -12727.7060   -12727.7454  0.0442 -3.4502
siesta:   15   -12740.1045   -12731.0296   -12731.0693  0.0297 -3.4091
siesta:   16   -12740.0820   -12733.9374   -12733.9767  0.0209 -3.3893
siesta:   17   -12740.0674   -12736.7275   -12736.7661  0.0129 -3.3882
siesta:   18   -12740.0708   -12738.1627   -12738.2017  0.0078 -3.3896
siesta:   19   -12740.0675   -12739.2268   -12739.2664  0.0033 -3.3965
siesta:   20   -12740.0654   -12739.5351   -12739.5742  0.0024 -3.3981
siesta:   21   -12740.0638   -12739.8246   -12739.8636  0.0013 -3.3997
siesta:   22   -12740.0636   -12739.8832   -12739.9223  0.0010 -3.4000
siesta:   23   -12740.0634   -12739.9734   -12740.0124  0.0007 -3.3997
siesta:   24   -12740.0634   -12739.9894   -12740.0285  0.0007 -3.3995
siesta:   25   -12740.0634   -12740.0202   -12740.0593  0.0004 -3.3992
siesta:   26   -12740.0634   -12740.0199   -12740.0590  0.0003 -3.3993
siesta:   27   -12740.0634   -12740.0260   -12740.0650  0.0002 -3.3993
siesta:   28   -12740.0634   -12740.0546   -12740.0937  0.0001 -3.3992

siesta: E_KS(eV) =           -12740.0536

siesta: E_KS - E_eggbox =    -12740.0536

siesta: Atomic forces (eV/Ang):
----------------------------------------
   Tot    0.230147   -0.258092    0.000000
----------------------------------------
   Max    1.324081
   Res    0.307410    sqrt( Sum f_i^2 / 3N )
----------------------------------------
   Max    1.324081    constrained

Stress-tensor-Voigt (kbar):        0.55        1.69        0.15       -1.21        0.00        0.00
(Free)E + p*V (eV/cell)   -12741.0313
Target enthalpy (eV/cell)   -12740.0927

siesta: Stress tensor (static) (eV/Ang**3):
         0.000342   -0.000757    0.000000
        -0.000757    0.001054    0.000000
         0.000000    0.000000    0.000091

siesta: Pressure (static):         -0.79427490  kBar

siesta: Stress tensor (total) (eV/Ang**3):
         0.000342   -0.000757    0.000000
        -0.000757    0.001054    0.000000
         0.000000    0.000000    0.000091

siesta: Pressure (total):         -0.79427490  kBar

siesta: Temp_ion =       0.000 K

* Maximum dynamic memory allocated =   203 MB

siesta: Program's energy decomposition (eV):
siesta: Ebs     =     -4185.648636
siesta: Eions   =     19849.732669
siesta: Ena     =      4064.223059
siesta: Ekin    =      8580.057797
siesta: Enl     =     -1059.305826
siesta: DEna    =      -247.379058
siesta: DUscf   =        22.454371
siesta: DUext   =         0.000000
siesta: Exc     =     -4250.371292
siesta: eta*DQ  =         0.000000
siesta: Emadel  =         0.000000
siesta: Emeta   =         0.000000
siesta: Emolmec =         0.000000
siesta: Ekinion =         0.000000
siesta: Eharris =    -12740.063414
siesta: Etot    =    -12740.053619
siesta: FreeEng =    -12740.092712

siesta: Final energy (eV):
siesta:  Band Struct. =   -4185.648636
siesta:       Kinetic =    8580.057797
siesta:       Hartree =   24797.235708
siesta:    Ext. field =       0.000000
siesta:   Exch.-corr. =   -4250.371292
siesta:  Ion-electron =  -57571.324026
siesta:       Ion-ion =   15704.348195
siesta:       Ekinion =       0.000000
siesta:         Total =  -12740.053619

siesta: Atomic forces (eV/Ang):
siesta:      1    0.217986    0.230712    0.000000
siesta:      2    0.115075   -0.142595    0.000000
siesta:      3    0.123650    0.387625    0.000000
siesta:      4   -0.026841   -0.414226    0.000000
siesta:      5    0.310063    0.089156    0.000000
siesta:      6    0.116357    0.148636    0.000000
siesta:      7    0.082635    0.066511    0.000000
siesta:      8    0.133828    0.307452    0.000000
siesta:      9    0.164129   -0.245281    0.000000
siesta:     10   -0.289799    0.926043    0.000000
siesta:     11    0.413363   -1.147957    0.000000
siesta:     12    0.646163   -0.855843    0.000000
siesta:     13   -0.690872    0.889242    0.000000
siesta:     14   -0.406612   -0.510248    0.000000
siesta:     15    0.099050   -0.206326    0.000000
siesta:     16    0.135895    0.019288    0.000000
siesta:     17    0.066679   -0.292401    0.000000
siesta:     18   -0.137802   -0.301022    0.000000
siesta:     19   -0.414914   -0.178220    0.000000
siesta:     20   -0.465764   -0.701595    0.000000
siesta:     21    0.534784   -0.009116    0.000000
siesta:     22   -0.301754    0.167156    0.000000
siesta:     23    0.178179   -0.014732    0.000000
siesta:     24   -0.029653    1.203387    0.000000
siesta:     25    0.044970   -1.324081    0.000000
siesta:     26   -0.030487    0.230661    0.000000
siesta:     27   -0.412147   -0.014786    0.000000
siesta:     28    0.659894    0.375445    0.000000
siesta:     29   -0.345461   -0.242395    0.000000
siesta:     30   -0.229476    0.036940    0.000000
siesta:     31    0.379671    0.257372    0.000000
siesta:     32    0.033838   -0.404106    0.000000
siesta:     33    0.128142    0.451678    0.000000
siesta:     34    0.091303   -0.372370    0.000000
siesta:     35   -0.208624   -0.190324    0.000000
siesta:     36    0.018407   -0.124327    0.000000
siesta:     37    0.208179   -0.196833    0.000000
siesta:     38   -0.224261    0.243433    0.000000
siesta:     39   -0.003304   -0.014694    0.000000
siesta:     40    0.210860    0.297039    0.000000
siesta:     41    0.040442    0.065784    0.000000
siesta:     42   -0.276409    0.103578    0.000000
siesta:     43    0.011962    0.286132    0.000000
siesta:     44   -0.238062   -0.229960    0.000000
siesta:     45   -0.335832   -0.454656    0.000000
siesta:     46    0.703192    0.542621    0.000000
siesta:     47   -0.834725   -0.102840    0.000000
siesta:     48    0.521002    0.340993    0.000000
siesta:     49    0.081180   -1.072429    0.000000
siesta:     50   -0.129858    1.109129    0.000000
siesta:     51   -0.127086   -0.429905    0.000000
siesta:     52    0.221690    0.148269    0.000000
siesta:     53   -0.002936    0.076895    0.000000
siesta:     54   -0.444671    0.070904    0.000000
siesta:     55   -0.169813    0.231665    0.000000
siesta:     56    0.050620    0.128454    0.000000
siesta:     57   -0.029373   -0.399249    0.000000
siesta:     58    0.388109    0.348285    0.000000
siesta:     59   -0.325906   -0.241179    0.000000
siesta:     60    0.140444    0.421754    0.000000
siesta:     61   -0.176232    0.240550    0.000000
siesta:     62   -0.183938   -0.184458    0.000000
siesta:     63    0.540536    0.342713    0.000000
siesta:     64    0.189892    0.023225    0.000000
siesta:     65    0.258917    0.161801    0.000000
siesta:     66    0.003151   -0.131773    0.000000
siesta:     67   -0.330537    0.102406    0.000000
siesta:     68    0.027649    0.093803    0.000000
siesta:     69    0.008785    0.113981    0.000000
siesta:     70   -0.108315    0.127249    0.000000
siesta:     71   -0.071727   -0.250862    0.000000
siesta:     72   -0.067332   -0.265268    0.000000
siesta: ----------------------------------------
siesta:    Tot    0.230147   -0.258092    0.000000

siesta: Stress tensor (static) (eV/Ang**3):
siesta:     0.000342   -0.000757    0.000000
siesta:    -0.000757    0.001054    0.000000
siesta:     0.000000    0.000000    0.000091

siesta: Cell volume =       1893.226895 Ang**3

siesta: Pressure (static):
siesta:                Solid            Molecule  Units
siesta:          -0.00000540         -0.00006007  Ry/Bohr**3
siesta:          -0.00049574         -0.00551540  eV/Ang**3
siesta:          -0.79427490         -8.83673410  kBar
(Free)E+ p_basis*V_orbitals  =      -12710.641766
(Free)Eharris+ p_basis*V_orbitals  =      -12710.650571

siesta: Electric dipole (a.u.)  =    0.000000    0.000000    0.000000
siesta: Electric dipole (Debye) =    0.000000    0.000000    0.000000

* Maximum dynamic memory allocated : Node    0 =   203 MB
* Maximum dynamic memory allocated : Node    1 =    74 MB
* Maximum dynamic memory allocated : Node    2 =    76 MB
* Maximum dynamic memory allocated : Node    3 =   193 MB
* Maximum dynamic memory allocated : Node    4 =   203 MB
* Maximum dynamic memory allocated : Node    5 =    74 MB
* Maximum dynamic memory allocated : Node    6 =    76 MB
* Maximum dynamic memory allocated : Node    7 =   187 MB

* Maximum memory occured during matrixMtoO                    

timer: CPU execution times:
timer:  Routine       Calls   Time/call    Tot.time        %
timer:  siesta            1  221066.925  221066.925   100.00
timer:  Setup             1       3.158       3.158     0.00
timer:  bands             1       0.009       0.009     0.00
timer:  writewave         1       0.019       0.019     0.00
timer:  KSV_init          1       0.000       0.000     0.00
timer:  IterMD            1  221055.590  221055.590    99.99
timer:  hsparse           1       0.267       0.267     0.00
timer:  overlap           1       6.348       6.348     0.00
timer:  IterSCF          28    7888.835  220887.392    99.92
timer:  kinefsm           2       3.261       6.522     0.00
timer:  nlefsm            2      18.837      37.674     0.02
timer:  DHSCF            29      94.725    2747.018     1.24
timer:  DHSCF1            1       0.815       0.815     0.00
timer:  DHSCF2            1      34.586      34.586     0.02
timer:  REORD           234       0.014       3.274     0.00
timer:  POISON           30       3.691     110.720     0.05
timer:  DHSCF3           29      92.342    2677.930     1.21
timer:  rhoofd           29      16.821     487.809     0.22
timer:  cellXC           29       3.606     104.560     0.05
timer:  vmat             29      44.410    1287.883     0.58
timer:  MolMec            2       0.000       0.000     0.00
timer:  diagon           28    7792.464  218188.995    98.70
timer:  c-eigval       9856       7.220   71160.739    32.19
timer:  c-buildHS      9856       0.206    2027.066     0.92
timer:  cdiag         19712       7.401  145884.031    65.99
timer:  cdiag1        19712       0.461    9088.584     4.11
timer:  cdiag2        19712       1.977   38967.677    17.63
timer:  cdiag3        19712       4.169   82188.095    37.18
timer:  cdiag4        19712       0.245    4830.732     2.19
timer:  c-eigvec       9856       7.874   77606.429    35.11
timer:  c-buildD       9856       7.032   69305.443    31.35
timer:  DHSCF4            1      31.102      31.102     0.01
timer:  dfscf             1      29.268      29.268     0.01
timer:  overfsm           1       0.373       0.373     0.00
timer:  optical           1       7.152       7.152     0.00
  

elaps: ELAPSED times:
elaps:  Routine       Calls   Time/call    Tot.time        %
elaps:  siesta            1   27676.303   27676.303   100.00
elaps:  Setup             1       0.393       0.393     0.00
elaps:  bands             1       0.001       0.001     0.00
elaps:  writewave         1       0.002       0.002     0.00
elaps:  KSV_init          1       0.000       0.000     0.00
elaps:  IterMD            1   27674.887   27674.887    99.99
elaps:  hsparse           1       0.032       0.032     0.00
elaps:  overlap           1       0.525       0.525     0.00
elaps:  IterSCF          28     987.637   27653.843    99.92
elaps:  kinefsm           2       0.274       0.548     0.00
elaps:  nlefsm            2       2.495       4.989     0.02
elaps:  DHSCF            29      11.965     346.995     1.25
elaps:  DHSCF1            1       0.111       0.111     0.00
elaps:  DHSCF2            1       4.320       4.320     0.02
elaps:  REORD           234       0.002       0.443     0.00
elaps:  POISON           30       0.463      13.898     0.05
elaps:  DHSCF3           29      11.554     335.058     1.21
elaps:  rhoofd           29       3.553     103.045     0.37
elaps:  cellXC           29       0.450      13.050     0.05
elaps:  vmat             29       5.556     161.121     0.58
elaps:  MolMec            2       0.000       0.000     0.00
elaps:  diagon           28     975.612   27317.140    98.70
elaps:  c-eigval       9856       0.903    8904.547    32.17
elaps:  c-buildHS      9856       0.027     267.803     0.97
elaps:  cdiag         19712       0.908   17903.512    64.69
elaps:  cdiag1        19712       0.058    1137.659     4.11
elaps:  cdiag2        19712       0.247    4876.059    17.62
elaps:  cdiag3        19712       0.522   10299.245    37.21
elaps:  cdiag4        19712       0.032     631.324     2.28
elaps:  c-eigvec       9856       0.953    9388.187    33.92
elaps:  c-buildD       9856       0.914    9007.894    32.55
elaps:  DHSCF4            1       7.145       7.145     0.03
elaps:  dfscf             1       6.771       6.771     0.02
elaps:  overfsm           1       0.049       0.049     0.00
elaps:  optical           1       0.000       0.000     0.00
  
>> End of run:  29-NOV-2015  18:37:23
