Siesta Version:                                        siesta-3.2-pl-3
Architecture  : x86_64-unknown-linux-gnu--unknown
Compiler flags: mpiifort -g -O2 -fPIC -xSSE4.1 -fp-model source -shared-intel 
PARALLEL version

* Running on    8 nodes in parallel
>> Start of run:  25-NOV-2015  23:53:06

                           ***********************       
                           *  WELCOME TO SIESTA  *       
                           ***********************       

reinit: Reading from standard input
************************** Dump of input data file ****************************
#(1) General system descriptors
SystemName            GRP_doping    # Descriptive name of the system
SystemLabel           GRP_doping    # Short name for naming files
%include STRUCT.fdf
%include KPT.fdf
%include BASIS.fdf
#%include TS.fdf # for transiesta calculation
#(4) DFT, Grid, SCF
XC.functional         GGA           # LDA or GGA (default = LDA)
XC.authors            PBE           # CA (Ceperley-Aldr) = PZ
                                    #    (Perdew-Zunger) - LDA - Default
                                    # PW92 (Perdew-Wang-92) - LDA
                                    # PBE (Perdew-Burke-Ernzerhof) - GGA
MeshCutoff            200.000000    Ry      # Default: 50.0 Ry ~ 0.444 Bohr
                                    #         100.0 Ry ~ 0.314 Bohr
MaxSCFIterations      500           # Default: 50
DM.MixingWeight       0.05          # Default: 0.25
DM.NumberPulay        10            # Default: 0
DM.PulayOnFile        F             # SystemLabel.P1, SystemLabel.P2
DM.Tolerance          1.d-4         # Default: 1.d-4
DM.UseSaveDM          .true.        # because of the bug
SCFMustConverge       .true.
NeglNonOverlapInt     F             # Default: F
#(5) Eigenvalue problem: order-N or diagonalization
SolutionMethod        Diagon        # or Transiesta
ElectronicTemperature 300.0 K       # Default: 300.0 K
#(6) Molecular dynamics and relaxations
#MD.TypeOfRun          CG            # Type of dynamics:
#MD.VariableCell       F
#MD.NumCGsteps         0           # 0 for single-point / 100 for gopt
#MD.MaxCGDispl         0.2 Bohr      # Default: 0.2 Bohr
#MD.MaxForceTol        0.02 eV/Ang   # Default: 0.04 eV/Ang
#MD.MaxStressTol       1.0 GPa       # Default: 1.0 GPa
# Geometry Constraints
#%block GeometryConstraints
#	position from 1 to 44
#%endblock GeometryConstraints
************************** End of input data file *****************************

reinit: -----------------------------------------------------------------------
reinit: System Name: GRP_doping
reinit: -----------------------------------------------------------------------
reinit: System Label: GRP_doping                                                  
reinit: -----------------------------------------------------------------------

initatom: Reading input for the pseudopotentials and atomic orbitals ----------
 Species number:            1  Label: B Atomic number:           5
 Species number:            2  Label: C Atomic number:           6
Ground state valence configuration:   2s02  2p01
Reading pseudopotential information in formatted form from B.psf

Valence configuration for pseudopotential generation:
2s( 2.00) rc: 1.74
2p( 1.00) rc: 1.74
3d( 0.00) rc: 1.74
4f( 0.00) rc: 1.74
Ground state valence configuration:   2s02  2p02
Reading pseudopotential information in formatted form from C.psf

Valence configuration for pseudopotential generation:
2s( 2.00) rc: 1.54
2p( 2.00) rc: 1.54
3d( 0.00) rc: 1.54
4f( 0.00) rc: 1.54
For B, standard SIESTA heuristics set lmxkb to 3
 (one more than the basis l, including polarization orbitals).
Use PS.lmax or PS.KBprojectors blocks to override.
For C, standard SIESTA heuristics set lmxkb to 3
 (one more than the basis l, including polarization orbitals).
Use PS.lmax or PS.KBprojectors blocks to override.

<basis_specs>
===============================================================================
B                    Z=   5    Mass=  10.810        Charge= 0.17977+309
Lmxo=1 Lmxkb= 3    BasisType=split      Semic=F
L=0  Nsemic=0  Cnfigmx=2
          n=1  nzeta=2  polorb=0
            splnorm:   0.15000    
               vcte:    0.0000    
               rinn:    0.0000    
                rcs:    0.0000      0.0000    
            lambdas:    1.0000      1.0000    
L=1  Nsemic=0  Cnfigmx=2
          n=1  nzeta=2  polorb=1
            splnorm:   0.15000    
               vcte:    0.0000    
               rinn:    0.0000    
                rcs:    0.0000      0.0000    
            lambdas:    1.0000      1.0000    
-------------------------------------------------------------------------------
L=0  Nkbl=1  erefs: 0.17977+309
L=1  Nkbl=1  erefs: 0.17977+309
L=2  Nkbl=1  erefs: 0.17977+309
L=3  Nkbl=1  erefs: 0.17977+309
===============================================================================
</basis_specs>

atom: Called for B                     (Z =   5)

read_vps: Pseudopotential generation method:
read_vps: ATM3      Troullier-Martins                       
Total valence charge:    3.00000

read_vps: Pseudopotential includes a core correction:
read_vps: Pseudo-core for xc-correction

xc_check: Exchange-correlation functional:
xc_check: GGA Perdew, Burke & Ernzerhof 1996
V l=0 = -2*Zval/r beyond r=  1.7165
V l=1 = -2*Zval/r beyond r=  1.7165
V l=2 = -2*Zval/r beyond r=  1.7165
V l=3 = -2*Zval/r beyond r=  1.6951
All V_l potentials equal beyond r=  1.7165
This should be close to max(r_c) in ps generation
All pots = -2*Zval/r beyond r=  1.7165

VLOCAL1: 99.0% of the norm of Vloc inside     14.733 Ry
VLOCAL1: 99.9% of the norm of Vloc inside     33.577 Ry
atom: Maximum radius for 4*pi*r*r*local-pseudopot. charge    2.04484
atom: Maximum radius for r*vlocal+2*Zval:    1.75994
GHOST: No ghost state for L =  0
GHOST: No ghost state for L =  1
GHOST: No ghost state for L =  2
GHOST: No ghost state for L =  3

KBgen: Kleinman-Bylander projectors: 
   l= 0   rc=  1.897051   el= -0.693730   Ekb=  4.595746   kbcos=  0.286105
   l= 1   rc=  1.920920   el= -0.265236   Ekb= -2.350715   kbcos= -0.315747
   l= 2   rc=  2.044840   el=  0.002055   Ekb= -0.690767   kbcos= -0.013822
   l= 3   rc=  2.149707   el=  0.003188   Ekb= -0.315358   kbcos= -0.002055

KBgen: Total number of  Kleinman-Bylander projectors:   16
atom: -------------------------------------------------------------------------

atom: SANKEY-TYPE ORBITALS:
atom: Selected multiple-zeta basis: split     

SPLIT: Orbitals with angular momentum L= 0

SPLIT: Basis orbitals for state 2s

SPLIT: PAO cut-off radius determined from an
SPLIT: energy shift=  0.007350 Ry

   izeta = 1
                 lambda =    1.000000
                     rc =    5.422032
                 energy =   -0.686029
                kinetic =    0.576707
    potential(screened) =   -1.262736
       potential(ionic) =   -3.271094

   izeta = 2
                 rmatch =    4.222573
              splitnorm =    0.150000
                 energy =   -0.602132
                kinetic =    0.858975
    potential(screened) =   -1.461107
       potential(ionic) =   -3.582536

SPLIT: Orbitals with angular momentum L= 1

SPLIT: Basis orbitals for state 2p

SPLIT: PAO cut-off radius determined from an
SPLIT: energy shift=  0.007350 Ry

   izeta = 1
                 lambda =    1.000000
                     rc =    6.790259
                 energy =   -0.258578
                kinetic =    1.481412
    potential(screened) =   -1.739989
       potential(ionic) =   -3.657461

   izeta = 2
                 rmatch =    4.608740
              splitnorm =    0.150000
                 energy =   -0.173757
                kinetic =    2.186690
    potential(screened) =   -2.360447
       potential(ionic) =   -4.464260

POLgen: Perturbative polarization orbital with L=  2

POLgen: Polarization orbital for state 2p

   izeta = 1
                     rc =    6.790259
                 energy =    0.684082
                kinetic =    1.471481
    potential(screened) =   -0.787399
       potential(ionic) =   -2.406985
atom: Total number of Sankey-type orbitals: 13

atm_pop: Valence configuration (for local Pseudopot. screening):
 2s( 2.00)                                                            
 2p( 1.00)                                                            
Vna: chval, zval:    3.00000   3.00000

Vna:  Cut-off radius for the neutral-atom potential:   6.790259
comcore: Pseudo-core radius Rcore=  2.122997

atom: _________________________________________________________________________

<basis_specs>
===============================================================================
C                    Z=   6    Mass=  12.010        Charge= 0.17977+309
Lmxo=1 Lmxkb= 3    BasisType=split      Semic=F
L=0  Nsemic=0  Cnfigmx=2
          n=1  nzeta=2  polorb=0
            splnorm:   0.15000    
               vcte:    0.0000    
               rinn:    0.0000    
                rcs:    0.0000      0.0000    
            lambdas:    1.0000      1.0000    
L=1  Nsemic=0  Cnfigmx=2
          n=1  nzeta=2  polorb=1
            splnorm:   0.15000    
               vcte:    0.0000    
               rinn:    0.0000    
                rcs:    0.0000      0.0000    
            lambdas:    1.0000      1.0000    
-------------------------------------------------------------------------------
L=0  Nkbl=1  erefs: 0.17977+309
L=1  Nkbl=1  erefs: 0.17977+309
L=2  Nkbl=1  erefs: 0.17977+309
L=3  Nkbl=1  erefs: 0.17977+309
===============================================================================
</basis_specs>

atom: Called for C                     (Z =   6)

read_vps: Pseudopotential generation method:
read_vps: ATM3      Troullier-Martins                       
Total valence charge:    4.00000

read_vps: Pseudopotential includes a core correction:
read_vps: Pseudo-core for xc-correction

xc_check: Exchange-correlation functional:
xc_check: GGA Perdew, Burke & Ernzerhof 1996
V l=0 = -2*Zval/r beyond r=  1.5227
V l=1 = -2*Zval/r beyond r=  1.5227
V l=2 = -2*Zval/r beyond r=  1.5227
V l=3 = -2*Zval/r beyond r=  1.5038
All V_l potentials equal beyond r=  1.5227
This should be close to max(r_c) in ps generation
All pots = -2*Zval/r beyond r=  1.5227

VLOCAL1: 99.0% of the norm of Vloc inside     18.722 Ry
VLOCAL1: 99.9% of the norm of Vloc inside     42.668 Ry
atom: Maximum radius for 4*pi*r*r*local-pseudopot. charge    1.83678
atom: Maximum radius for r*vlocal+2*Zval:    1.58088
GHOST: No ghost state for L =  0
GHOST: No ghost state for L =  1
GHOST: No ghost state for L =  2
GHOST: No ghost state for L =  3

KBgen: Kleinman-Bylander projectors: 
   l= 0   rc=  1.704034   el= -1.009801   Ekb=  5.335044   kbcos=  0.316824
   l= 1   rc=  1.704034   el= -0.388707   Ekb= -3.785862   kbcos= -0.366464
   l= 2   rc=  1.791422   el=  0.001971   Ekb= -0.970471   kbcos= -0.009212
   l= 3   rc=  1.859892   el=  0.003065   Ekb= -0.399525   kbcos= -0.001223

KBgen: Total number of  Kleinman-Bylander projectors:   16
atom: -------------------------------------------------------------------------

atom: SANKEY-TYPE ORBITALS:
atom: Selected multiple-zeta basis: split     

SPLIT: Orbitals with angular momentum L= 0

SPLIT: Basis orbitals for state 2s

SPLIT: PAO cut-off radius determined from an
SPLIT: energy shift=  0.007350 Ry

   izeta = 1
                 lambda =    1.000000
                     rc =    4.632753
                 energy =   -1.002270
                kinetic =    0.855760
    potential(screened) =   -1.858031
       potential(ionic) =   -5.417575

   izeta = 2
                 rmatch =    3.431921
              splitnorm =    0.150000
                 energy =   -0.867111
                kinetic =    1.300804
    potential(screened) =   -2.167915
       potential(ionic) =   -5.962684

SPLIT: Orbitals with angular momentum L= 1

SPLIT: Basis orbitals for state 2p

SPLIT: PAO cut-off radius determined from an
SPLIT: energy shift=  0.007350 Ry

   izeta = 1
                 lambda =    1.000000
                     rc =    5.658549
                 energy =   -0.381140
                kinetic =    2.399701
    potential(screened) =   -2.780841
       potential(ionic) =   -6.206085

   izeta = 2
                 rmatch =    3.653288
              splitnorm =    0.150000
                 energy =   -0.249149
                kinetic =    3.542762
    potential(screened) =   -3.791911
       potential(ionic) =   -7.581078

POLgen: Perturbative polarization orbital with L=  2

POLgen: Polarization orbital for state 2p

   izeta = 1
                     rc =    5.658549
                 energy =    1.109913
                kinetic =    2.304789
    potential(screened) =   -1.194876
       potential(ionic) =   -4.013592
atom: Total number of Sankey-type orbitals: 13

atm_pop: Valence configuration (for local Pseudopot. screening):
 2s( 2.00)                                                            
 2p( 2.00)                                                            
Vna: chval, zval:    4.00000   4.00000

Vna:  Cut-off radius for the neutral-atom potential:   5.658549
comcore: Pseudo-core radius Rcore=  1.791422

atom: _________________________________________________________________________

prinput: Basis input ----------------------------------------------------------

PAO.BasisType split     

%block ChemicalSpeciesLabel
    1    5 B                       # Species index, atomic number, species label
    2    6 C                       # Species index, atomic number, species label
%endblock ChemicalSpeciesLabel

%block PAO.Basis                 # Define Basis set
B                     2                    # Species label, number of l-shells
 n=2   0   2                         # n, l, Nzeta 
   5.422      4.223   
   1.000      1.000   
 n=2   1   2 P   1                   # n, l, Nzeta, Polarization, NzetaPol
   6.790      4.609   
   1.000      1.000   
C                     2                    # Species label, number of l-shells
 n=2   0   2                         # n, l, Nzeta 
   4.633      3.432   
   1.000      1.000   
 n=2   1   2 P   1                   # n, l, Nzeta, Polarization, NzetaPol
   5.659      3.653   
   1.000      1.000   
%endblock PAO.Basis

prinput: ----------------------------------------------------------------------

coor:   Atomic-coordinates input format  =     Cartesian coordinates
coor:                                          (in Angstroms)

siesta: Atomic coordinates (Bohr) and species
siesta:      2.23554   1.32097   0.00000  1        1
siesta:     18.53247  10.73026   0.00000  1        2
siesta:      4.56367   2.66461   0.00000  2        3
siesta:     32.50328  21.48508   0.00000  2        4
siesta:     34.83141  22.82873   0.00000  2        5
siesta:     34.83116  17.45226   0.00000  2        6
siesta:     37.15930  18.79590   0.00000  2        7
siesta:     32.50291  13.41944   0.00000  2        8
siesta:     34.83104  14.76308   0.00000  2        9
siesta:     30.17465   9.38661   0.00000  2       10
siesta:     32.50278  10.73026   0.00000  2       11
siesta:     27.84639   5.35379   0.00000  2       12
siesta:     30.17453   6.69743   0.00000  2       13
siesta:     27.84714  21.48508   0.00000  2       14
siesta:     30.17527  22.82873   0.00000  2       15
siesta:      6.89168   1.32097   0.00000  2       16
siesta:      9.21981   2.66461   0.00000  2       17
siesta:     11.54782   1.32097   0.00000  2       18
siesta:     13.87595   2.66461   0.00000  2       19
siesta:     16.20396   1.32097   0.00000  2       20
siesta:     18.53210   2.66461   0.00000  2       21
siesta:     20.86199   1.32097   0.00000  2       22
siesta:     23.19013   2.66461   0.00000  2       23
siesta:     25.51813   1.32097   0.00000  2       24
siesta:     27.84627   2.66461   0.00000  2       25
siesta:      4.56380   5.35379   0.00000  2       26
siesta:      6.89193   6.69743   0.00000  2       27
siesta:      9.21994   5.35379   0.00000  2       28
siesta:     11.54807   6.69743   0.00000  2       29
siesta:     13.87608   5.35379   0.00000  2       30
siesta:     16.20421   6.69743   0.00000  2       31
siesta:     18.53411   5.35379   0.00000  2       32
siesta:     20.86224   6.69743   0.00000  2       33
siesta:     23.19025   5.35379   0.00000  2       34
siesta:     25.51838   6.69743   0.00000  2       35
siesta:      6.89205   9.38661   0.00000  2       36
siesta:      9.22019  10.73026   0.00000  2       37
siesta:     11.54820   9.38661   0.00000  2       38
siesta:     13.87633  10.73026   0.00000  2       39
siesta:     16.20434   9.38661   0.00000  2       40
siesta:     20.86237   9.38661   0.00000  2       41
siesta:     23.19050  10.73026   0.00000  2       42
siesta:      9.22031  13.41944   0.00000  2       43
siesta:     11.54845  14.76308   0.00000  2       44
siesta:     13.87645  13.41944   0.00000  2       45
siesta:     16.20459  14.76308   0.00000  2       46
siesta:     18.53448  13.41944   0.00000  2       47
siesta:     20.86262  14.76308   0.00000  2       48
siesta:     11.54857  17.45226   0.00000  2       49
siesta:     13.87670  18.79590   0.00000  2       50
siesta:     16.20471  17.45226   0.00000  2       51
siesta:     18.53284  18.79590   0.00000  2       52
siesta:     13.87683  21.48508   0.00000  2       53
siesta:     16.20496  22.82873   0.00000  2       54
siesta:     18.53486  21.48508   0.00000  2       55
siesta:     20.86299  22.82873   0.00000  2       56
siesta:     25.51851   9.38661   0.00000  2       57
siesta:     27.84664  10.73026   0.00000  2       58
siesta:     23.19063  13.41944   0.00000  2       59
siesta:     25.51876  14.76308   0.00000  2       60
siesta:     20.86274  17.45226   0.00000  2       61
siesta:     23.19088  18.79590   0.00000  2       62
siesta:     27.84677  13.41944   0.00000  2       63
siesta:     30.17490  14.76308   0.00000  2       64
siesta:     25.51888  17.45226   0.00000  2       65
siesta:     27.84702  18.79590   0.00000  2       66
siesta:     23.19100  21.48508   0.00000  2       67
siesta:     25.51913  22.82873   0.00000  2       68
siesta:     30.17503  17.45226   0.00000  2       69
siesta:     32.50316  18.79590   0.00000  2       70
siesta:     37.16131  21.48508   0.00000  2       71
siesta:     39.48945  22.82873   0.00000  2       72

siesta: System type = slab      

initatomlists: Number of atoms, orbitals, and projectors:     72   936  1152

siesta: ******************** Simulation parameters ****************************
siesta:
siesta: The following are some of the parameters of the simulation.
siesta: A complete list of the parameters used, including default values,
siesta: can be found in file out.fdf
siesta:
redata: Non-Collinear-spin run           =     F
redata: SpinPolarized (Up/Down) run      =     F
redata: Number of spin components        =     1
redata: Long output                      =     F
redata: Number of Atomic Species         =        2
redata: Charge density info will appear in .RHO file
redata: Write Mulliken Pop.              =     NO
redata: Mesh Cutoff                      =   200.0000  Ry
redata: Net charge of the system         =     0.0000 |e|
redata: Max. number of SCF Iter          =      500
redata: SCF convergence failure will abort job
redata: Performing Pulay mixing using    =    10 iterations
redata: Mix DM in first SCF step ?       =     F
redata: Write Pulay info on disk?        =     F
redata: Discard 1st Pulay DM after  kick =     F
redata: New DM Mixing Weight             =     0.0500
redata: New DM Occupancy tolerance       = 0.000000000001
redata: No kicks to SCF
redata: DM Mixing Weight for Kicks       =     0.5000
redata: DM Tolerance for SCF             =     0.000100
redata: Require Energy convergence for SCF =     F
redata: DM Energy tolerance for SCF      =     0.000100 eV
redata: Require Harris convergence for SCF =     F
redata: DM Harris energy tolerance for SCF =     0.000100 eV
redata: Using Saved Data (generic)   =     F
redata: Use continuation files for DM    =     T
redata: Neglect nonoverlap interactions  =     F
redata: Method of Calculation            =     Diagonalization
redata: Divide and Conquer               =     T
redata: Electronic Temperature           =     0.0019  Ry
redata: Fix the spin of the system       =     F
redata: Dynamics option                  =     Verlet MD run
redata: Initial MD time step             =        1
redata:   Final MD time step             =        1
redata: Length of MD time step           =     1.0000  fs
redata: Initial Temperature of MD run    =     0.0000  K
redata: Perform a MD quench              =     F
redata: ***********************************************************************
Total number of electrons:   286.000000
Total ionic charge:   286.000000

* ProcessorY, Blocksize:    2  24

k-point displ. along   1 input, could be:     0.00    0.50
k-point displ. along   2 input, could be:     0.00    0.50
 Kpoints in:          364 . Kpoints trimmed:          352

siesta: k-grid: Number of k-points =   352
siesta: k-grid: Cutoff (effective) =     5.000 Ang
siesta: k-grid: Supercell and displacements
siesta: k-grid:   26   0   0      0.000
siesta: k-grid:    0  26   0      0.000
siesta: k-grid:    0   0   1      0.000
Naive supercell factors:     2    2    2

superc: Internal auxiliary supercell:     2 x     2 x     2  =       8
superc: Number of atoms, orbitals, and projectors:    576   7488   9216

* Maximum dynamic memory allocated =     6 MB

siesta:                 ==============================
                            Begin MD step =      1
                        ==============================

superc: Internal auxiliary supercell:     2 x     2 x     2  =       8
superc: Number of atoms, orbitals, and projectors:    576   7488   9216

outcell: Unit cell vectors (Ang):
       14.785000    0.000000    0.000000
        7.393000   12.805052    0.000000
        0.000000    0.000000   10.000000

outcell: Cell vector modules (Ang)   :   14.785000   14.786000   10.000000
outcell: Cell angles (23,13,12) (deg):     90.0000     90.0000     60.0000
outcell: Cell volume (Ang**3)        :   1893.2269
New_DM. Step:     1
Initializing Density Matrix...

InitMesh: MESH =   120 x   120 x    90 =     1296000
InitMesh: Mesh cutoff (required, used) =   200.000   223.865 Ry

* Maximum dynamic memory allocated =   199 MB

stepf: Fermi-Dirac step function

siesta: Program's energy decomposition (eV):
siesta: Ebs     =     -4555.877039
siesta: Eions   =     18146.897649
siesta: Ena     =      3930.203808
siesta: Ekin    =      6272.698875
siesta: Enl     =       232.588566
siesta: DEna    =        -0.000012
siesta: DUscf   =         0.000000
siesta: DUext   =         0.000000
siesta: Exc     =     -3944.866969
siesta: eta*DQ  =         0.000000
siesta: Emadel  =         0.000000
siesta: Emeta   =         0.000000
siesta: Emolmec =         0.000000
siesta: Ekinion =         0.000000
siesta: Eharris =    -11586.728665
siesta: Etot    =    -11656.273381
siesta: FreeEng =    -11656.273381

siesta: iscf   Eharris(eV)      E_KS(eV)   FreeEng(eV)   dDmax  Ef(eV)
siesta:    1   -11586.7287   -11656.2734   -11656.2734  1.8856 -7.2219
timer: Routine,Calls,Time,% = IterSCF        1    6653.738  99.82
elaps: Routine,Calls,Wall,% = IterSCF        1     832.703  99.82
siesta:    2   -11591.2978   -11556.5640   -11556.5739  0.3897 -2.9408
siesta:    3   -11570.8882   -11578.9037   -11579.0030  0.3682 -4.7394
siesta:    4   -11570.1088   -11572.5272   -11572.5433  0.2500 -4.7165
siesta:    5   -11570.6724   -11567.6620   -11567.6775  0.1228 -5.1813
siesta:    6   -11570.1934   -11566.0462   -11566.0561  0.0910 -5.2526
siesta:    7   -11567.9281   -11565.1342   -11565.1439  0.0252 -5.3350
siesta:    8   -11567.7945   -11565.3091   -11565.3198  0.0185 -5.3370
siesta:    9   -11567.6845   -11565.8467   -11565.8574  0.0109 -5.3423
siesta:   10   -11567.6780   -11566.2663   -11566.2770  0.0074 -5.3396
siesta:   11   -11567.6780   -11566.7754   -11566.7862  0.0048 -5.3380
siesta:   12   -11567.6757   -11567.5972   -11567.6080  0.0004 -5.3301
siesta:   13   -11567.6756   -11567.5878   -11567.5987  0.0005 -5.3299
siesta:   14   -11567.6756   -11567.6499   -11567.6608  0.0002 -5.3297
siesta:   15   -11567.6756   -11567.6332   -11567.6440  0.0002 -5.3299
siesta:   16   -11567.6756   -11567.6764   -11567.6873  0.0001 -5.3298

siesta: E_KS(eV) =           -11567.6704

siesta: E_KS - E_eggbox =    -11567.6704

siesta: Atomic forces (eV/Ang):
----------------------------------------
   Tot    0.191684   -0.281015    0.000000
----------------------------------------
   Max    3.425623
   Res    0.594019    sqrt( Sum f_i^2 / 3N )
----------------------------------------
   Max    3.425623    constrained

Stress-tensor-Voigt (kbar):      -54.01      -53.12       -0.05       -0.44        0.00        0.00
(Free)E + p*V (eV/cell)   -11525.4672
Target enthalpy (eV/cell)   -11567.6813

siesta: Stress tensor (static) (eV/Ang**3):
        -0.033710   -0.000272    0.000000
        -0.000272   -0.033152    0.000000
         0.000000    0.000000   -0.000030

siesta: Pressure (static):         35.72482893  kBar

siesta: Stress tensor (total) (eV/Ang**3):
        -0.033710   -0.000272    0.000000
        -0.000272   -0.033152    0.000000
         0.000000    0.000000   -0.000030

siesta: Pressure (total):         35.72482893  kBar

siesta: Temp_ion =       0.000 K

* Maximum dynamic memory allocated =   214 MB

siesta: Program's energy decomposition (eV):
siesta: Ebs     =     -3883.342684
siesta: Eions   =     18146.897649
siesta: Ena     =      3930.203808
siesta: Ekin    =      7735.930833
siesta: Enl     =      -770.101954
siesta: DEna    =      -297.921070
siesta: DUscf   =        27.532446
siesta: DUext   =         0.000000
siesta: Exc     =     -4046.416838
siesta: eta*DQ  =         0.000000
siesta: Emadel  =         0.000000
siesta: Emeta   =         0.000000
siesta: Emolmec =         0.000000
siesta: Ekinion =         0.000000
siesta: Eharris =    -11567.675563
siesta: Etot    =    -11567.670424
siesta: FreeEng =    -11567.681283

siesta: Final energy (eV):
siesta:  Band Struct. =   -3883.342684
siesta:       Kinetic =    7735.930833
siesta:       Hartree =   22791.304728
siesta:    Ext. field =       0.000000
siesta:   Exch.-corr. =   -4046.416838
siesta:  Ion-electron =  -52699.865688
siesta:       Ion-ion =   14651.376541
siesta:       Ekinion =       0.000000
siesta:         Total =  -11567.670424

siesta: Atomic forces (eV/Ang):
siesta:      1   -0.011571   -0.030860    0.000000
siesta:      2    0.048965    0.008730    0.000000
siesta:      3    2.990235    1.725958    0.000000
siesta:      4    0.058724    0.001068    0.000000
siesta:      5   -0.065266    0.098734    0.000000
siesta:      6    0.036660    0.029414    0.000000
siesta:      7    0.041809   -0.126087    0.000000
siesta:      8    0.015204   -0.089902    0.000000
siesta:      9    0.076797   -0.047039    0.000000
siesta:     10    0.009696   -0.272234    0.000000
siesta:     11    0.086068    0.082407    0.000000
siesta:     12   -0.491063   -0.317298    0.000000
siesta:     13    0.003494    0.318866    0.000000
siesta:     14   -0.056087    0.037047    0.000000
siesta:     15   -0.011350    0.102183    0.000000
siesta:     16    0.001860    0.570837    0.000000
siesta:     17    0.086225   -0.123647    0.000000
siesta:     18    0.089616   -0.011571    0.000000
siesta:     19   -0.059404   -0.058851    0.000000
siesta:     20   -0.059968   -0.117360    0.000000
siesta:     21    0.037039    0.253158    0.000000
siesta:     22   -0.005756   -0.072053    0.000000
siesta:     23   -0.051694   -0.163622    0.000000
siesta:     24   -0.007800    0.549794    0.000000
siesta:     25   -2.955275    1.717069    0.000000
siesta:     26    0.511915   -0.312615    0.000000
siesta:     27   -0.065852    0.141459    0.000000
siesta:     28   -0.034187   -0.035063    0.000000
siesta:     29    0.039548    0.026508    0.000000
siesta:     30    0.074580   -0.148350    0.000000
siesta:     31   -0.491619    0.302154    0.000000
siesta:     32   -0.025957   -0.322303    0.000000
siesta:     33    0.499936    0.307433    0.000000
siesta:     34   -0.027163   -0.181853    0.000000
siesta:     35    0.026296    0.176758    0.000000
siesta:     36    0.050659    0.050915    0.000000
siesta:     37   -0.081989   -0.017474    0.000000
siesta:     38   -0.080192    0.111045    0.000000
siesta:     39    0.005152   -0.599997    0.000000
siesta:     40   -2.987214   -1.744464    0.000000
siesta:     41    2.941038   -1.722957    0.000000
siesta:     42    0.018139   -0.581576    0.000000
siesta:     43   -0.118429   -0.026491    0.000000
siesta:     44    0.221522   -0.126526    0.000000
siesta:     45   -0.259939    0.153920    0.000000
siesta:     46    0.543454    0.279507    0.000000
siesta:     47   -0.037733    3.425623    0.000000
siesta:     48   -0.499400    0.316212    0.000000
siesta:     49   -0.032236    0.034457    0.000000
siesta:     50   -0.166722    0.043833    0.000000
siesta:     51   -0.156525    0.046903    0.000000
siesta:     52    0.203014   -0.066707    0.000000
siesta:     53    0.519926   -0.324532    0.000000
siesta:     54    0.036682   -3.395031    0.000000
siesta:     55   -0.546863   -0.285274    0.000000
siesta:     56    0.262332   -0.143375    0.000000
siesta:     57    0.054502    0.149163    0.000000
siesta:     58   -0.025725    0.046616    0.000000
siesta:     59    0.287912    0.150166    0.000000
siesta:     60   -0.258408   -0.144914    0.000000
siesta:     61    0.140417   -0.043491    0.000000
siesta:     62    0.019087   -0.039826    0.000000
siesta:     63    0.107753   -0.090682    0.000000
siesta:     64   -0.050427   -0.004184    0.000000
siesta:     65   -0.011314    0.114626    0.000000
siesta:     66   -0.031679   -0.037400    0.000000
siesta:     67   -0.217276    0.122974    0.000000
siesta:     68    0.105000    0.045789    0.000000
siesta:     69    0.015418   -0.005526    0.000000
siesta:     70   -0.009801   -0.003645    0.000000
siesta:     71    0.222500    0.146456    0.000000
siesta:     72   -0.305604   -0.134024    0.000000
siesta: ----------------------------------------
siesta:    Tot    0.191684   -0.281015    0.000000

siesta: Stress tensor (static) (eV/Ang**3):
siesta:    -0.033710   -0.000272    0.000000
siesta:    -0.000272   -0.033152    0.000000
siesta:     0.000000    0.000000   -0.000030

siesta: Cell volume =       1893.226895 Ang**3

siesta: Pressure (static):
siesta:                Solid            Molecule  Units
siesta:           0.00024285          0.00037445  Ry/Bohr**3
siesta:           0.02229744          0.03438032  eV/Ang**3
siesta:          35.72482893         55.08394776  kBar
(Free)E+ p_basis*V_orbitals  =      -11536.311757
(Free)Eharris+ p_basis*V_orbitals  =      -11536.310913

siesta: Electric dipole (a.u.)  =    0.000000    0.000000    0.000000
siesta: Electric dipole (Debye) =    0.000000    0.000000    0.000000

* Maximum dynamic memory allocated : Node    0 =   214 MB
* Maximum dynamic memory allocated : Node    1 =    77 MB
* Maximum dynamic memory allocated : Node    2 =    80 MB
* Maximum dynamic memory allocated : Node    3 =   202 MB
* Maximum dynamic memory allocated : Node    4 =   212 MB
* Maximum dynamic memory allocated : Node    5 =    76 MB
* Maximum dynamic memory allocated : Node    6 =    79 MB
* Maximum dynamic memory allocated : Node    7 =   196 MB

* Maximum memory occured during matrixMtoO                    

timer: CPU execution times:
timer:  Routine       Calls   Time/call    Tot.time        %
timer:  siesta            1  105691.411  105691.411   100.00
timer:  Setup             1       3.061       3.061     0.00
timer:  bands             1       0.008       0.008     0.00
timer:  writewave         1       0.018       0.018     0.00
timer:  KSV_init          1       0.003       0.003     0.00
timer:  IterMD            1  105680.192  105680.192    99.99
timer:  hsparse           1       0.394       0.394     0.00
timer:  overlap           1       4.700       4.700     0.00
timer:  IterSCF          16    6593.503  105496.043    99.82
timer:  kinefsm           2       2.450       4.901     0.00
timer:  nlefsm            2      19.765      39.530     0.04
timer:  DHSCF            17      98.615    1676.447     1.59
timer:  DHSCF1            1       1.002       1.002     0.00
timer:  DHSCF2            1      40.492      40.492     0.04
timer:  REORD           138       0.010       1.381     0.00
timer:  POISON           18       2.255      40.593     0.04
timer:  DHSCF3           17      94.094    1599.596     1.51
timer:  rhoofd           17      18.298     311.063     0.29
timer:  cellXC           17       3.501      59.516     0.06
timer:  vmat             17      48.382     822.489     0.78
timer:  MolMec            2       0.001       0.001     0.00
timer:  diagon           16    6493.609  103897.748    98.30
timer:  c-eigval       5632       6.686   37653.474    35.63
timer:  c-buildHS      5632       0.120     677.193     0.64
timer:  cdiag         11264       6.876   77453.833    73.28
timer:  cdiag1        11264       0.430    4847.136     4.59
timer:  cdiag2        11264       1.907   21485.106    20.33
timer:  cdiag3        11264       3.948   44475.053    42.08
timer:  cdiag4        11264       0.205    2310.178     2.19
timer:  c-eigvec       5632       7.260   40889.574    38.69
timer:  c-buildD       5632       4.494   25308.221    23.95
timer:  DHSCF4            1      34.439      34.439     0.03
timer:  dfscf             1      31.968      31.968     0.03
timer:  overfsm           1       0.400       0.400     0.00
timer:  optical           1       7.134       7.134     0.01
  

elaps: ELAPSED times:
elaps:  Routine       Calls   Time/call    Tot.time        %
elaps:  siesta            1   13226.846   13226.846   100.00
elaps:  Setup             1       0.382       0.382     0.00
elaps:  bands             1       0.001       0.001     0.00
elaps:  writewave         1       0.002       0.002     0.00
elaps:  KSV_init          1       0.000       0.000     0.00
elaps:  IterMD            1   13225.444   13225.444    99.99
elaps:  hsparse           1       0.050       0.050     0.00
elaps:  overlap           1       0.976       0.976     0.01
elaps:  IterSCF          16     825.151   13202.408    99.82
elaps:  kinefsm           2       0.502       1.005     0.01
elaps:  nlefsm            2       2.463       4.926     0.04
elaps:  DHSCF            17      12.539     213.165     1.61
elaps:  DHSCF1            1       0.128       0.128     0.00
elaps:  DHSCF2            1       5.060       5.060     0.04
elaps:  REORD           138       0.001       0.178     0.00
elaps:  POISON           18       0.282       5.078     0.04
elaps:  DHSCF3           17      11.773     200.135     1.51
elaps:  rhoofd           17       3.945      67.072     0.51
elaps:  cellXC           17       0.437       7.429     0.06
elaps:  vmat             17       6.053     102.906     0.78
elaps:  MolMec            2       0.000       0.000     0.00
elaps:  diagon           16     812.679   13002.863    98.31
elaps:  c-eigval       5632       0.836    4711.031    35.62
elaps:  c-buildHS      5632       0.017      93.066     0.70
elaps:  cdiag         11264       0.847    9540.460    72.13
elaps:  cdiag1        11264       0.053     602.595     4.56
elaps:  cdiag2        11264       0.239    2688.112    20.32
elaps:  cdiag3        11264       0.495    5572.224    42.13
elaps:  cdiag4        11264       0.027     303.839     2.30
elaps:  c-eigvec       5632       0.885    4985.801    37.69
elaps:  c-buildD       5632       0.586    3299.484    24.95
elaps:  DHSCF4            1       7.720       7.720     0.06
elaps:  dfscf             1       7.248       7.248     0.05
elaps:  overfsm           1       0.054       0.054     0.00
elaps:  optical           1       0.000       0.000     0.00
  
>> End of run:  26-NOV-2015   3:33:32
