Siesta Version:                                        siesta-3.2-pl-3
Architecture  : x86_64-unknown-linux-gnu--unknown
Compiler flags: mpiifort -g -O2 -fPIC -xSSE4.1 -fp-model source -shared-intel 
PARALLEL version

* Running on    8 nodes in parallel
>> Start of run:  28-NOV-2015  13:20:15

                           ***********************       
                           *  WELCOME TO SIESTA  *       
                           ***********************       

reinit: Reading from standard input
************************** Dump of input data file ****************************
#(1) General system descriptors
SystemName            GRP_doping    # Descriptive name of the system
SystemLabel           GRP_doping    # Short name for naming files
%include STRUCT.fdf
%include KPT.fdf
%include BASIS.fdf
#%include TS.fdf # for transiesta calculation
#(4) DFT, Grid, SCF
XC.functional         GGA           # LDA or GGA (default = LDA)
XC.authors            PBE           # CA (Ceperley-Aldr) = PZ
                                    #    (Perdew-Zunger) - LDA - Default
                                    # PW92 (Perdew-Wang-92) - LDA
                                    # PBE (Perdew-Burke-Ernzerhof) - GGA
MeshCutoff            200.000000    Ry      # Default: 50.0 Ry ~ 0.444 Bohr
                                    #         100.0 Ry ~ 0.314 Bohr
MaxSCFIterations      500           # Default: 50
DM.MixingWeight       0.05          # Default: 0.25
DM.NumberPulay        10            # Default: 0
DM.PulayOnFile        F             # SystemLabel.P1, SystemLabel.P2
DM.Tolerance          1.d-4         # Default: 1.d-4
DM.UseSaveDM          .true.        # because of the bug
SCFMustConverge       .true.
NeglNonOverlapInt     F             # Default: F
#(5) Eigenvalue problem: order-N or diagonalization
SolutionMethod        Diagon        # or Transiesta
ElectronicTemperature 300.0 K       # Default: 300.0 K
#(6) Molecular dynamics and relaxations
#MD.TypeOfRun          CG            # Type of dynamics:
#MD.VariableCell       F
#MD.NumCGsteps         0           # 0 for single-point / 100 for gopt
#MD.MaxCGDispl         0.2 Bohr      # Default: 0.2 Bohr
#MD.MaxForceTol        0.02 eV/Ang   # Default: 0.04 eV/Ang
#MD.MaxStressTol       1.0 GPa       # Default: 1.0 GPa
# Geometry Constraints
#%block GeometryConstraints
#	position from 1 to 44
#%endblock GeometryConstraints
************************** End of input data file *****************************

reinit: -----------------------------------------------------------------------
reinit: System Name: GRP_doping
reinit: -----------------------------------------------------------------------
reinit: System Label: GRP_doping                                                  
reinit: -----------------------------------------------------------------------

initatom: Reading input for the pseudopotentials and atomic orbitals ----------
 Species number:            1  Label: C Atomic number:           6
 Species number:            2  Label: B Atomic number:           5
Ground state valence configuration:   2s02  2p02
Reading pseudopotential information in formatted form from C.psf

Valence configuration for pseudopotential generation:
2s( 2.00) rc: 1.54
2p( 2.00) rc: 1.54
3d( 0.00) rc: 1.54
4f( 0.00) rc: 1.54
Ground state valence configuration:   2s02  2p01
Reading pseudopotential information in formatted form from B.psf

Valence configuration for pseudopotential generation:
2s( 2.00) rc: 1.74
2p( 1.00) rc: 1.74
3d( 0.00) rc: 1.74
4f( 0.00) rc: 1.74
For C, standard SIESTA heuristics set lmxkb to 3
 (one more than the basis l, including polarization orbitals).
Use PS.lmax or PS.KBprojectors blocks to override.
For B, standard SIESTA heuristics set lmxkb to 3
 (one more than the basis l, including polarization orbitals).
Use PS.lmax or PS.KBprojectors blocks to override.

<basis_specs>
===============================================================================
C                    Z=   6    Mass=  12.010        Charge= 0.17977+309
Lmxo=1 Lmxkb= 3    BasisType=split      Semic=F
L=0  Nsemic=0  Cnfigmx=2
          n=1  nzeta=2  polorb=0
            splnorm:   0.15000    
               vcte:    0.0000    
               rinn:    0.0000    
                rcs:    0.0000      0.0000    
            lambdas:    1.0000      1.0000    
L=1  Nsemic=0  Cnfigmx=2
          n=1  nzeta=2  polorb=1
            splnorm:   0.15000    
               vcte:    0.0000    
               rinn:    0.0000    
                rcs:    0.0000      0.0000    
            lambdas:    1.0000      1.0000    
-------------------------------------------------------------------------------
L=0  Nkbl=1  erefs: 0.17977+309
L=1  Nkbl=1  erefs: 0.17977+309
L=2  Nkbl=1  erefs: 0.17977+309
L=3  Nkbl=1  erefs: 0.17977+309
===============================================================================
</basis_specs>

atom: Called for C                     (Z =   6)

read_vps: Pseudopotential generation method:
read_vps: ATM3      Troullier-Martins                       
Total valence charge:    4.00000

read_vps: Pseudopotential includes a core correction:
read_vps: Pseudo-core for xc-correction

xc_check: Exchange-correlation functional:
xc_check: GGA Perdew, Burke & Ernzerhof 1996
V l=0 = -2*Zval/r beyond r=  1.5227
V l=1 = -2*Zval/r beyond r=  1.5227
V l=2 = -2*Zval/r beyond r=  1.5227
V l=3 = -2*Zval/r beyond r=  1.5038
All V_l potentials equal beyond r=  1.5227
This should be close to max(r_c) in ps generation
All pots = -2*Zval/r beyond r=  1.5227

VLOCAL1: 99.0% of the norm of Vloc inside     18.722 Ry
VLOCAL1: 99.9% of the norm of Vloc inside     42.668 Ry
atom: Maximum radius for 4*pi*r*r*local-pseudopot. charge    1.83678
atom: Maximum radius for r*vlocal+2*Zval:    1.58088
GHOST: No ghost state for L =  0
GHOST: No ghost state for L =  1
GHOST: No ghost state for L =  2
GHOST: No ghost state for L =  3

KBgen: Kleinman-Bylander projectors: 
   l= 0   rc=  1.704034   el= -1.009801   Ekb=  5.335044   kbcos=  0.316824
   l= 1   rc=  1.704034   el= -0.388707   Ekb= -3.785862   kbcos= -0.366464
   l= 2   rc=  1.791422   el=  0.001971   Ekb= -0.970471   kbcos= -0.009212
   l= 3   rc=  1.859892   el=  0.003065   Ekb= -0.399525   kbcos= -0.001223

KBgen: Total number of  Kleinman-Bylander projectors:   16
atom: -------------------------------------------------------------------------

atom: SANKEY-TYPE ORBITALS:
atom: Selected multiple-zeta basis: split     

SPLIT: Orbitals with angular momentum L= 0

SPLIT: Basis orbitals for state 2s

SPLIT: PAO cut-off radius determined from an
SPLIT: energy shift=  0.007350 Ry

   izeta = 1
                 lambda =    1.000000
                     rc =    4.632753
                 energy =   -1.002270
                kinetic =    0.855760
    potential(screened) =   -1.858031
       potential(ionic) =   -5.417575

   izeta = 2
                 rmatch =    3.431921
              splitnorm =    0.150000
                 energy =   -0.867111
                kinetic =    1.300804
    potential(screened) =   -2.167915
       potential(ionic) =   -5.962684

SPLIT: Orbitals with angular momentum L= 1

SPLIT: Basis orbitals for state 2p

SPLIT: PAO cut-off radius determined from an
SPLIT: energy shift=  0.007350 Ry

   izeta = 1
                 lambda =    1.000000
                     rc =    5.658549
                 energy =   -0.381140
                kinetic =    2.399701
    potential(screened) =   -2.780841
       potential(ionic) =   -6.206085

   izeta = 2
                 rmatch =    3.653288
              splitnorm =    0.150000
                 energy =   -0.249149
                kinetic =    3.542762
    potential(screened) =   -3.791911
       potential(ionic) =   -7.581078

POLgen: Perturbative polarization orbital with L=  2

POLgen: Polarization orbital for state 2p

   izeta = 1
                     rc =    5.658549
                 energy =    1.109913
                kinetic =    2.304789
    potential(screened) =   -1.194876
       potential(ionic) =   -4.013592
atom: Total number of Sankey-type orbitals: 13

atm_pop: Valence configuration (for local Pseudopot. screening):
 2s( 2.00)                                                            
 2p( 2.00)                                                            
Vna: chval, zval:    4.00000   4.00000

Vna:  Cut-off radius for the neutral-atom potential:   5.658549
comcore: Pseudo-core radius Rcore=  1.791422

atom: _________________________________________________________________________

<basis_specs>
===============================================================================
B                    Z=   5    Mass=  10.810        Charge= 0.17977+309
Lmxo=1 Lmxkb= 3    BasisType=split      Semic=F
L=0  Nsemic=0  Cnfigmx=2
          n=1  nzeta=2  polorb=0
            splnorm:   0.15000    
               vcte:    0.0000    
               rinn:    0.0000    
                rcs:    0.0000      0.0000    
            lambdas:    1.0000      1.0000    
L=1  Nsemic=0  Cnfigmx=2
          n=1  nzeta=2  polorb=1
            splnorm:   0.15000    
               vcte:    0.0000    
               rinn:    0.0000    
                rcs:    0.0000      0.0000    
            lambdas:    1.0000      1.0000    
-------------------------------------------------------------------------------
L=0  Nkbl=1  erefs: 0.17977+309
L=1  Nkbl=1  erefs: 0.17977+309
L=2  Nkbl=1  erefs: 0.17977+309
L=3  Nkbl=1  erefs: 0.17977+309
===============================================================================
</basis_specs>

atom: Called for B                     (Z =   5)

read_vps: Pseudopotential generation method:
read_vps: ATM3      Troullier-Martins                       
Total valence charge:    3.00000

read_vps: Pseudopotential includes a core correction:
read_vps: Pseudo-core for xc-correction

xc_check: Exchange-correlation functional:
xc_check: GGA Perdew, Burke & Ernzerhof 1996
V l=0 = -2*Zval/r beyond r=  1.7165
V l=1 = -2*Zval/r beyond r=  1.7165
V l=2 = -2*Zval/r beyond r=  1.7165
V l=3 = -2*Zval/r beyond r=  1.6951
All V_l potentials equal beyond r=  1.7165
This should be close to max(r_c) in ps generation
All pots = -2*Zval/r beyond r=  1.7165

VLOCAL1: 99.0% of the norm of Vloc inside     14.733 Ry
VLOCAL1: 99.9% of the norm of Vloc inside     33.577 Ry
atom: Maximum radius for 4*pi*r*r*local-pseudopot. charge    2.04484
atom: Maximum radius for r*vlocal+2*Zval:    1.75994
GHOST: No ghost state for L =  0
GHOST: No ghost state for L =  1
GHOST: No ghost state for L =  2
GHOST: No ghost state for L =  3

KBgen: Kleinman-Bylander projectors: 
   l= 0   rc=  1.897051   el= -0.693730   Ekb=  4.595746   kbcos=  0.286105
   l= 1   rc=  1.920920   el= -0.265236   Ekb= -2.350715   kbcos= -0.315747
   l= 2   rc=  2.044840   el=  0.002055   Ekb= -0.690767   kbcos= -0.013822
   l= 3   rc=  2.149707   el=  0.003188   Ekb= -0.315358   kbcos= -0.002055

KBgen: Total number of  Kleinman-Bylander projectors:   16
atom: -------------------------------------------------------------------------

atom: SANKEY-TYPE ORBITALS:
atom: Selected multiple-zeta basis: split     

SPLIT: Orbitals with angular momentum L= 0

SPLIT: Basis orbitals for state 2s

SPLIT: PAO cut-off radius determined from an
SPLIT: energy shift=  0.007350 Ry

   izeta = 1
                 lambda =    1.000000
                     rc =    5.422032
                 energy =   -0.686029
                kinetic =    0.576707
    potential(screened) =   -1.262736
       potential(ionic) =   -3.271094

   izeta = 2
                 rmatch =    4.222573
              splitnorm =    0.150000
                 energy =   -0.602132
                kinetic =    0.858975
    potential(screened) =   -1.461107
       potential(ionic) =   -3.582536

SPLIT: Orbitals with angular momentum L= 1

SPLIT: Basis orbitals for state 2p

SPLIT: PAO cut-off radius determined from an
SPLIT: energy shift=  0.007350 Ry

   izeta = 1
                 lambda =    1.000000
                     rc =    6.790259
                 energy =   -0.258578
                kinetic =    1.481412
    potential(screened) =   -1.739989
       potential(ionic) =   -3.657461

   izeta = 2
                 rmatch =    4.608740
              splitnorm =    0.150000
                 energy =   -0.173757
                kinetic =    2.186690
    potential(screened) =   -2.360447
       potential(ionic) =   -4.464260

POLgen: Perturbative polarization orbital with L=  2

POLgen: Polarization orbital for state 2p

   izeta = 1
                     rc =    6.790259
                 energy =    0.684082
                kinetic =    1.471481
    potential(screened) =   -0.787399
       potential(ionic) =   -2.406985
atom: Total number of Sankey-type orbitals: 13

atm_pop: Valence configuration (for local Pseudopot. screening):
 2s( 2.00)                                                            
 2p( 1.00)                                                            
Vna: chval, zval:    3.00000   3.00000

Vna:  Cut-off radius for the neutral-atom potential:   6.790259
comcore: Pseudo-core radius Rcore=  2.122997

atom: _________________________________________________________________________

prinput: Basis input ----------------------------------------------------------

PAO.BasisType split     

%block ChemicalSpeciesLabel
    1    6 C                       # Species index, atomic number, species label
    2    5 B                       # Species index, atomic number, species label
%endblock ChemicalSpeciesLabel

%block PAO.Basis                 # Define Basis set
C                     2                    # Species label, number of l-shells
 n=2   0   2                         # n, l, Nzeta 
   4.633      3.432   
   1.000      1.000   
 n=2   1   2 P   1                   # n, l, Nzeta, Polarization, NzetaPol
   5.659      3.653   
   1.000      1.000   
B                     2                    # Species label, number of l-shells
 n=2   0   2                         # n, l, Nzeta 
   5.422      4.223   
   1.000      1.000   
 n=2   1   2 P   1                   # n, l, Nzeta, Polarization, NzetaPol
   6.790      4.609   
   1.000      1.000   
%endblock PAO.Basis

prinput: ----------------------------------------------------------------------

coor:   Atomic-coordinates input format  =     Cartesian coordinates
coor:                                          (in Angstroms)

siesta: Atomic coordinates (Bohr) and species
siesta:      2.23554   1.32097   0.00000  1        1
siesta:     32.50328  21.48508   0.00000  1        2
siesta:     34.83116  17.45226   0.00000  1        3
siesta:     37.15930  18.79590   0.00000  1        4
siesta:     32.50291  13.41944   0.00000  1        5
siesta:     34.83104  14.76308   0.00000  1        6
siesta:     30.17465   9.38661   0.00000  1        7
siesta:     32.50278  10.73026   0.00000  1        8
siesta:     27.84639   5.35379   0.00000  1        9
siesta:     30.17453   6.69743   0.00000  1       10
siesta:     27.84714  21.48508   0.00000  1       11
siesta:     30.17527  22.82873   0.00000  1       12
siesta:      6.89168   1.32097   0.00000  1       13
siesta:      9.21981   2.66461   0.00000  1       14
siesta:     13.87595   2.66461   0.00000  1       15
siesta:     16.20396   1.32097   0.00000  1       16
siesta:     18.53210   2.66461   0.00000  1       17
siesta:     23.19013   2.66461   0.00000  1       18
siesta:     25.51813   1.32097   0.00000  1       19
siesta:     27.84627   2.66461   0.00000  1       20
siesta:      4.56380   5.35379   0.00000  1       21
siesta:      6.89193   6.69743   0.00000  1       22
siesta:      9.21994   5.35379   0.00000  1       23
siesta:     11.54807   6.69743   0.00000  1       24
siesta:     13.87608   5.35379   0.00000  1       25
siesta:     16.20421   6.69743   0.00000  1       26
siesta:     18.53411   5.35379   0.00000  1       27
siesta:     20.86224   6.69743   0.00000  1       28
siesta:     23.19025   5.35379   0.00000  1       29
siesta:     25.51838   6.69743   0.00000  1       30
siesta:      9.22019  10.73026   0.00000  1       31
siesta:     11.54820   9.38661   0.00000  1       32
siesta:     13.87633  10.73026   0.00000  1       33
siesta:     18.53247  10.73026   0.00000  1       34
siesta:     20.86237   9.38661   0.00000  1       35
siesta:     23.19050  10.73026   0.00000  1       36
siesta:      9.22031  13.41944   0.00000  1       37
siesta:     11.54845  14.76308   0.00000  1       38
siesta:     13.87645  13.41944   0.00000  1       39
siesta:     16.20459  14.76308   0.00000  1       40
siesta:     18.53448  13.41944   0.00000  1       41
siesta:     20.86262  14.76308   0.00000  1       42
siesta:     13.87670  18.79590   0.00000  1       43
siesta:     16.20471  17.45226   0.00000  1       44
siesta:     18.53284  18.79590   0.00000  1       45
siesta:     13.87683  21.48508   0.00000  1       46
siesta:     16.20496  22.82873   0.00000  1       47
siesta:     18.53486  21.48508   0.00000  1       48
siesta:     20.86299  22.82873   0.00000  1       49
siesta:     27.84664  10.73026   0.00000  1       50
siesta:     23.19063  13.41944   0.00000  1       51
siesta:     25.51876  14.76308   0.00000  1       52
siesta:     23.19088  18.79590   0.00000  1       53
siesta:     27.84677  13.41944   0.00000  1       54
siesta:     30.17490  14.76308   0.00000  1       55
siesta:     25.51888  17.45226   0.00000  1       56
siesta:     27.84702  18.79590   0.00000  1       57
siesta:     23.19100  21.48508   0.00000  1       58
siesta:     25.51913  22.82873   0.00000  1       59
siesta:     30.17503  17.45226   0.00000  1       60
siesta:     32.50316  18.79590   0.00000  1       61
siesta:     37.16131  21.48508   0.00000  1       62
siesta:     39.48945  22.82873   0.00000  1       63
siesta:      4.56367   2.66461   0.00000  2       64
siesta:     34.83141  22.82873   0.00000  2       65
siesta:     11.54782   1.32097   0.00000  2       66
siesta:     20.86199   1.32097   0.00000  2       67
siesta:      6.89205   9.38661   0.00000  2       68
siesta:     16.20434   9.38661   0.00000  2       69
siesta:     11.54857  17.45226   0.00000  2       70
siesta:     25.51851   9.38661   0.00000  2       71
siesta:     20.86274  17.45226   0.00000  2       72

siesta: System type = slab      

initatomlists: Number of atoms, orbitals, and projectors:     72   936  1152

siesta: ******************** Simulation parameters ****************************
siesta:
siesta: The following are some of the parameters of the simulation.
siesta: A complete list of the parameters used, including default values,
siesta: can be found in file out.fdf
siesta:
redata: Non-Collinear-spin run           =     F
redata: SpinPolarized (Up/Down) run      =     F
redata: Number of spin components        =     1
redata: Long output                      =     F
redata: Number of Atomic Species         =        2
redata: Charge density info will appear in .RHO file
redata: Write Mulliken Pop.              =     NO
redata: Mesh Cutoff                      =   200.0000  Ry
redata: Net charge of the system         =     0.0000 |e|
redata: Max. number of SCF Iter          =      500
redata: SCF convergence failure will abort job
redata: Performing Pulay mixing using    =    10 iterations
redata: Mix DM in first SCF step ?       =     F
redata: Write Pulay info on disk?        =     F
redata: Discard 1st Pulay DM after  kick =     F
redata: New DM Mixing Weight             =     0.0500
redata: New DM Occupancy tolerance       = 0.000000000001
redata: No kicks to SCF
redata: DM Mixing Weight for Kicks       =     0.5000
redata: DM Tolerance for SCF             =     0.000100
redata: Require Energy convergence for SCF =     F
redata: DM Energy tolerance for SCF      =     0.000100 eV
redata: Require Harris convergence for SCF =     F
redata: DM Harris energy tolerance for SCF =     0.000100 eV
redata: Using Saved Data (generic)   =     F
redata: Use continuation files for DM    =     T
redata: Neglect nonoverlap interactions  =     F
redata: Method of Calculation            =     Diagonalization
redata: Divide and Conquer               =     T
redata: Electronic Temperature           =     0.0019  Ry
redata: Fix the spin of the system       =     F
redata: Dynamics option                  =     Verlet MD run
redata: Initial MD time step             =        1
redata:   Final MD time step             =        1
redata: Length of MD time step           =     1.0000  fs
redata: Initial Temperature of MD run    =     0.0000  K
redata: Perform a MD quench              =     F
redata: ***********************************************************************
Total number of electrons:   279.000000
Total ionic charge:   279.000000

* ProcessorY, Blocksize:    2  24

k-point displ. along   1 input, could be:     0.00    0.50
k-point displ. along   2 input, could be:     0.00    0.50
 Kpoints in:          364 . Kpoints trimmed:          352

siesta: k-grid: Number of k-points =   352
siesta: k-grid: Cutoff (effective) =     5.000 Ang
siesta: k-grid: Supercell and displacements
siesta: k-grid:   26   0   0      0.000
siesta: k-grid:    0  26   0      0.000
siesta: k-grid:    0   0   1      0.000
Naive supercell factors:     2    2    2

superc: Internal auxiliary supercell:     2 x     2 x     2  =       8
superc: Number of atoms, orbitals, and projectors:    576   7488   9216

* Maximum dynamic memory allocated =     6 MB

siesta:                 ==============================
                            Begin MD step =      1
                        ==============================

superc: Internal auxiliary supercell:     2 x     2 x     2  =       8
superc: Number of atoms, orbitals, and projectors:    576   7488   9216

outcell: Unit cell vectors (Ang):
       14.785000    0.000000    0.000000
        7.393000   12.805052    0.000000
        0.000000    0.000000   10.000000

outcell: Cell vector modules (Ang)   :   14.785000   14.786000   10.000000
outcell: Cell angles (23,13,12) (deg):     90.0000     90.0000     60.0000
outcell: Cell volume (Ang**3)        :   1893.2269
New_DM. Step:     1
Initializing Density Matrix...

InitMesh: MESH =   120 x   120 x    90 =     1296000
InitMesh: Mesh cutoff (required, used) =   200.000   223.865 Ry

* Maximum dynamic memory allocated =   207 MB

stepf: Fermi-Dirac step function

siesta: Program's energy decomposition (eV):
siesta: Ebs     =     -4460.449453
siesta: Eions   =     17250.500670
siesta: Ena     =      3769.795224
siesta: Ekin    =      5903.534022
siesta: Enl     =       294.310917
siesta: DEna    =        -0.000010
siesta: DUscf   =         0.000000
siesta: DUext   =         0.000000
siesta: Exc     =     -3961.820637
siesta: eta*DQ  =         0.000000
siesta: Emadel  =         0.000000
siesta: Emeta   =         0.000000
siesta: Emolmec =         0.000000
siesta: Ekinion =         0.000000
siesta: Eharris =    -11172.459443
siesta: Etot    =    -11244.681154
siesta: FreeEng =    -11244.681154

siesta: iscf   Eharris(eV)      E_KS(eV)   FreeEng(eV)   dDmax  Ef(eV)
siesta:    1   -11172.4594   -11244.6812   -11244.6812  1.8844 -8.1048
timer: Routine,Calls,Time,% = IterSCF        1    6743.895  99.84
elaps: Routine,Calls,Wall,% = IterSCF        1     844.326  99.88
siesta:    2   -11191.9159   -11124.8643   -11124.8948  0.5854 -3.8883
siesta:    3   -11153.3934   -11161.7883   -11161.8182  0.4783 -5.3398
siesta:    4   -11150.6655   -11161.0586   -11161.0828  0.4584 -5.3983
siesta:    5   -11146.2082   -11154.5019   -11154.5315  0.3094 -5.7510
siesta:    6   -11146.1799   -11147.4934   -11147.5138  0.1939 -5.7102
siesta:    7   -11147.2528   -11142.2323   -11142.2556  0.1903 -5.8900
siesta:    8   -11145.8464   -11141.8143   -11141.8462  0.1677 -5.8916
siesta:    9   -11144.6407   -11141.5045   -11141.5381  0.1334 -5.9357
siesta:   10   -11144.2843   -11141.5376   -11141.5716  0.1077 -5.9595
siesta:   11   -11144.1564   -11141.9682   -11142.0003  0.0870 -5.9682
siesta:   12   -11144.1082   -11142.3504   -11142.3830  0.0653 -5.9656
siesta:   13   -11144.0956   -11142.9254   -11142.9585  0.0436 -5.9517
siesta:   14   -11144.0837   -11143.8683   -11143.9027  0.0140 -5.9397
siesta:   15   -11144.0800   -11144.0379   -11144.0718  0.0092 -5.9359
siesta:   16   -11144.0744   -11144.0823   -11144.1161  0.0058 -5.9329
siesta:   17   -11144.0736   -11144.1784   -11144.2121  0.0037 -5.9348
siesta:   18   -11144.0726   -11144.2150   -11144.2488  0.0018 -5.9347
siesta:   19   -11144.0722   -11144.1745   -11144.2084  0.0013 -5.9342
siesta:   20   -11144.0719   -11144.1750   -11144.2090  0.0009 -5.9344
siesta:   21   -11144.0720   -11144.1480   -11144.1820  0.0008 -5.9350
siesta:   22   -11144.0720   -11144.1319   -11144.1658  0.0005 -5.9344
siesta:   23   -11144.0720   -11144.1072   -11144.1411  0.0004 -5.9343
siesta:   24   -11144.0720   -11144.0976   -11144.1315  0.0003 -5.9343
siesta:   25   -11144.0719   -11144.0798   -11144.1137  0.0001 -5.9346

siesta: E_KS(eV) =           -11144.0780

siesta: E_KS - E_eggbox =    -11144.0780

siesta: Atomic forces (eV/Ang):
----------------------------------------
   Tot    0.192860   -0.162625    0.000000
----------------------------------------
   Max    4.065418
   Res    1.262243    sqrt( Sum f_i^2 / 3N )
----------------------------------------
   Max    4.065418    constrained

Stress-tensor-Voigt (kbar):     -119.03     -118.73       -0.25       -0.81        0.00        0.00
(Free)E + p*V (eV/cell)   -11050.3616
Target enthalpy (eV/cell)   -11144.1120

siesta: Stress tensor (static) (eV/Ang**3):
        -0.074293   -0.000505    0.000000
        -0.000505   -0.074106    0.000000
         0.000000    0.000000   -0.000158

siesta: Pressure (static):         79.33874906  kBar

siesta: Stress tensor (total) (eV/Ang**3):
        -0.074293   -0.000505    0.000000
        -0.000505   -0.074106    0.000000
         0.000000    0.000000   -0.000158

siesta: Pressure (total):         79.33874906  kBar

siesta: Temp_ion =       0.000 K

* Maximum dynamic memory allocated =   223 MB

siesta: Program's energy decomposition (eV):
siesta: Ebs     =     -3690.784563
siesta: Eions   =     17250.500670
siesta: Ena     =      3769.795224
siesta: Ekin    =      7406.587640
siesta: Enl     =      -691.349509
siesta: DEna    =      -341.561510
siesta: DUscf   =        36.543711
siesta: DUext   =         0.000000
siesta: Exc     =     -4073.592893
siesta: eta*DQ  =         0.000000
siesta: Emadel  =         0.000000
siesta: Emeta   =         0.000000
siesta: Emolmec =         0.000000
siesta: Ekinion =         0.000000
siesta: Eharris =    -11144.071936
siesta: Etot    =    -11144.078008
siesta: FreeEng =    -11144.111968

siesta: Final energy (eV):
siesta:  Band Struct. =   -3690.784563
siesta:       Kinetic =    7406.587640
siesta:       Hartree =   21696.499979
siesta:    Ext. field =       0.000000
siesta:   Exch.-corr. =   -4073.592893
siesta:  Ion-electron =  -50131.271890
siesta:       Ion-ion =   13957.699156
siesta:       Ekinion =       0.000000
siesta:         Total =  -11144.078008

siesta: Atomic forces (eV/Ang):
siesta:      1   -3.185334   -1.899495    0.000000
siesta:      2   -3.351834   -2.115040    0.000000
siesta:      3   -0.282597   -0.203761    0.000000
siesta:      4   -2.094031    2.202944    0.000000
siesta:      5   -0.496116   -0.241865    0.000000
siesta:      6   -0.384172    0.710063    0.000000
siesta:      7   -0.269642    1.502936    0.000000
siesta:      8   -3.009997    1.642088    0.000000
siesta:      9   -0.608979    0.011038    0.000000
siesta:     10    0.565168   -0.152190    0.000000
siesta:     11   -0.575177   -0.207313    0.000000
siesta:     12    0.352974   -1.409927    0.000000
siesta:     13    3.109004   -1.636446    0.000000
siesta:     14   -2.875677    1.143225    0.000000
siesta:     15    2.974287    1.338990    0.000000
siesta:     16   -0.077570    1.927907    0.000000
siesta:     17   -2.615805    1.908499    0.000000
siesta:     18    2.618612    2.179178    0.000000
siesta:     19   -0.010196    0.726718    0.000000
siesta:     20    0.410816   -0.942137    0.000000
siesta:     21    0.163770    3.391642    0.000000
siesta:     22   -0.461063   -2.988290    0.000000
siesta:     23   -0.649089   -0.428573    0.000000
siesta:     24   -0.138897   -0.170052    0.000000
siesta:     25    1.097974   -0.394118    0.000000
siesta:     26   -0.030963   -3.141567    0.000000
siesta:     27   -1.186431   -0.467637    0.000000
siesta:     28   -0.115471    0.161309    0.000000
siesta:     29    1.107024   -0.718066    0.000000
siesta:     30    0.210179   -3.365266    0.000000
siesta:     31    2.690396    1.759071    0.000000
siesta:     32    0.200170    1.251817    0.000000
siesta:     33   -2.817979    1.517992    0.000000
siesta:     34    2.730746    1.618834    0.000000
siesta:     35   -0.129394    0.919894    0.000000
siesta:     36   -2.665618    1.720926    0.000000
siesta:     37    1.357918   -0.747214    0.000000
siesta:     38   -0.095476   -3.153463    0.000000
siesta:     39   -0.807923   -0.592319    0.000000
siesta:     40   -0.062324   -0.082078    0.000000
siesta:     41    0.799389   -0.679735    0.000000
siesta:     42    0.135005   -3.185082    0.000000
siesta:     43    2.815373    1.639619    0.000000
siesta:     44   -0.147492    1.020374    0.000000
siesta:     45   -2.793721    1.924848    0.000000
siesta:     46    0.519942   -0.219691    0.000000
siesta:     47   -0.540816    0.861431    0.000000
siesta:     48   -0.324648   -0.546664    0.000000
siesta:     49    0.195817    0.643217    0.000000
siesta:     50    3.058769    1.535666    0.000000
siesta:     51   -1.196276   -0.726295    0.000000
siesta:     52    0.422140    0.217803    0.000000
siesta:     53    2.923400    1.879736    0.000000
siesta:     54    0.399597   -0.066171    0.000000
siesta:     55   -0.093635    0.406359    0.000000
siesta:     56    0.133710    0.366456    0.000000
siesta:     57    0.414442   -0.236940    0.000000
siesta:     58    1.171896   -0.939322    0.000000
siesta:     59   -0.123088   -3.495949    0.000000
siesta:     60    0.031821   -0.170105    0.000000
siesta:     61   -0.940988    0.039268    0.000000
siesta:     62    2.263563   -2.620906    0.000000
siesta:     63    0.353843   -0.568265    0.000000
siesta:     64   -0.371716   -0.161754    0.000000
siesta:     65    0.163966   -3.895050    0.000000
siesta:     66    0.226083    0.028086    0.000000
siesta:     67   -0.047976    4.065418    0.000000
siesta:     68    0.111196    0.143777    0.000000
siesta:     69   -0.002989    0.008071    0.000000
siesta:     70   -0.105945   -0.097946    0.000000
siesta:     71    0.103593    0.064657    0.000000
siesta:     72    0.047325    0.024210    0.000000
siesta: ----------------------------------------
siesta:    Tot    0.192860   -0.162625    0.000000

siesta: Stress tensor (static) (eV/Ang**3):
siesta:    -0.074293   -0.000505    0.000000
siesta:    -0.000505   -0.074106    0.000000
siesta:     0.000000    0.000000   -0.000158

siesta: Cell volume =       1893.226895 Ang**3

siesta: Pressure (static):
siesta:                Solid            Molecule  Units
siesta:           0.00053932          0.00076538  Ry/Bohr**3
siesta:           0.04951882          0.07027494  eV/Ang**3
siesta:          79.33874906        112.59409078  kBar
(Free)E+ p_basis*V_orbitals  =      -11110.530769
(Free)Eharris+ p_basis*V_orbitals  =      -11110.522950

siesta: Electric dipole (a.u.)  =    0.000000    0.000000    0.000000
siesta: Electric dipole (Debye) =    0.000000    0.000000    0.000000

* Maximum dynamic memory allocated : Node    0 =   222 MB
* Maximum dynamic memory allocated : Node    1 =    80 MB
* Maximum dynamic memory allocated : Node    2 =    84 MB
* Maximum dynamic memory allocated : Node    3 =   211 MB
* Maximum dynamic memory allocated : Node    4 =   223 MB
* Maximum dynamic memory allocated : Node    5 =    81 MB
* Maximum dynamic memory allocated : Node    6 =    83 MB
* Maximum dynamic memory allocated : Node    7 =   204 MB

* Maximum memory occured during matrixMtoO                    

timer: CPU execution times:
timer:  Routine       Calls   Time/call    Tot.time        %
timer:  siesta            1  166993.677  166993.677   100.00
timer:  Setup             1       3.054       3.054     0.00
timer:  bands             1       0.010       0.010     0.00
timer:  writewave         1       0.019       0.019     0.00
timer:  KSV_init          1       0.003       0.003     0.00
timer:  IterMD            1  166982.498  166982.498    99.99
timer:  hsparse           1       0.390       0.390     0.00
timer:  overlap           1       6.398       6.398     0.00
timer:  IterSCF          25    6671.557  166788.920    99.88
timer:  kinefsm           2       3.315       6.631     0.00
timer:  nlefsm            2      20.373      40.746     0.02
timer:  DHSCF            26     107.613    2797.939     1.68
timer:  DHSCF1            1       0.997       0.997     0.00
timer:  DHSCF2            1      41.767      41.767     0.03
timer:  REORD           210       0.010       2.123     0.00
timer:  POISON           27       2.254      60.855     0.04
timer:  DHSCF3           26     104.462    2716.021     1.63
timer:  rhoofd           26      19.971     519.235     0.31
timer:  cellXC           26       3.504      91.114     0.05
timer:  vmat             26      54.962    1429.014     0.86
timer:  MolMec            2       0.000       0.000     0.00
timer:  diagon           25    6562.429  164060.730    98.24
timer:  c-eigval       8800       6.695   58916.255    35.28
timer:  c-buildHS      8800       0.123    1080.059     0.65
timer:  cdiag         17600       6.899  121422.664    72.71
timer:  cdiag1        17600       0.427    7512.903     4.50
timer:  cdiag2        17600       1.910   33611.337    20.13
timer:  cdiag3        17600       3.958   69652.937    41.71
timer:  cdiag4        17600       0.230    4041.436     2.42
timer:  c-eigvec       8800       7.299   64229.365    38.46
timer:  c-buildD       8800       4.641   40842.378    24.46
timer:  DHSCF4            1      37.787      37.787     0.02
timer:  dfscf             1      35.201      35.201     0.02
timer:  overfsm           1       0.430       0.430     0.00
timer:  optical           1       7.105       7.105     0.00
  

elaps: ELAPSED times:
elaps:  Routine       Calls   Time/call    Tot.time        %
elaps:  siesta            1   20898.426   20898.426   100.00
elaps:  Setup             1       0.381       0.381     0.00
elaps:  bands             1       0.001       0.001     0.00
elaps:  writewave         1       0.002       0.002     0.00
elaps:  KSV_init          1       0.000       0.000     0.00
elaps:  IterMD            1   20897.028   20897.028    99.99
elaps:  hsparse           1       0.049       0.049     0.00
elaps:  overlap           1       0.529       0.529     0.00
elaps:  IterSCF          25     834.926   20873.145    99.88
elaps:  kinefsm           2       0.278       0.556     0.00
elaps:  nlefsm            2       2.605       5.211     0.02
elaps:  DHSCF            26      13.604     353.714     1.69
elaps:  DHSCF1            1       0.130       0.130     0.00
elaps:  DHSCF2            1       5.224       5.224     0.02
elaps:  REORD           210       0.001       0.279     0.00
elaps:  POISON           27       0.283       7.629     0.04
elaps:  DHSCF3           26      13.069     339.794     1.63
elaps:  rhoofd           26       4.244     110.346     0.53
elaps:  cellXC           26       0.438      11.378     0.05
elaps:  vmat             26       6.876     178.772     0.86
elaps:  MolMec            2       0.000       0.000     0.00
elaps:  diagon           25     821.281   20532.031    98.25
elaps:  c-eigval       8800       0.838    7371.345    35.27
elaps:  c-buildHS      8800       0.017     146.951     0.70
elaps:  cdiag         17600       0.851   14977.844    71.67
elaps:  cdiag1        17600       0.053     930.932     4.45
elaps:  cdiag2        17600       0.239    4205.371    20.12
elaps:  cdiag3        17600       0.496    8726.988    41.76
elaps:  cdiag4        17600       0.029     510.014     2.44
elaps:  c-eigvec       8800       0.893    7855.823    37.59
elaps:  c-buildD       8800       0.602    5295.302    25.34
elaps:  DHSCF4            1       8.380       8.380     0.04
elaps:  dfscf             1       7.889       7.889     0.04
elaps:  overfsm           1       0.054       0.054     0.00
elaps:  optical           1       0.000       0.000     0.00
  
>> End of run:  28-NOV-2015  19:08:33
