Siesta Version:                                        siesta-3.2-pl-3
Architecture  : x86_64-unknown-linux-gnu--unknown
Compiler flags: mpiifort -g -O2 -fPIC -xSSE4.1 -fp-model source -shared-intel 
PARALLEL version

* Running on    8 nodes in parallel
>> Start of run:  26-NOV-2015  17:26:46

                           ***********************       
                           *  WELCOME TO SIESTA  *       
                           ***********************       

reinit: Reading from standard input
************************** Dump of input data file ****************************
#(1) General system descriptors
SystemName            GRP_doping    # Descriptive name of the system
SystemLabel           GRP_doping    # Short name for naming files
%include STRUCT.fdf
%include KPT.fdf
%include BASIS.fdf
#%include TS.fdf # for transiesta calculation
#(4) DFT, Grid, SCF
XC.functional         GGA           # LDA or GGA (default = LDA)
XC.authors            PBE           # CA (Ceperley-Aldr) = PZ
                                    #    (Perdew-Zunger) - LDA - Default
                                    # PW92 (Perdew-Wang-92) - LDA
                                    # PBE (Perdew-Burke-Ernzerhof) - GGA
MeshCutoff            200.000000    Ry      # Default: 50.0 Ry ~ 0.444 Bohr
                                    #         100.0 Ry ~ 0.314 Bohr
MaxSCFIterations      500           # Default: 50
DM.MixingWeight       0.05          # Default: 0.25
DM.NumberPulay        10            # Default: 0
DM.PulayOnFile        F             # SystemLabel.P1, SystemLabel.P2
DM.Tolerance          1.d-4         # Default: 1.d-4
DM.UseSaveDM          .true.        # because of the bug
SCFMustConverge       .true.
NeglNonOverlapInt     F             # Default: F
#(5) Eigenvalue problem: order-N or diagonalization
SolutionMethod        Diagon        # or Transiesta
ElectronicTemperature 300.0 K       # Default: 300.0 K
#(6) Molecular dynamics and relaxations
#MD.TypeOfRun          CG            # Type of dynamics:
#MD.VariableCell       F
#MD.NumCGsteps         0           # 0 for single-point / 100 for gopt
#MD.MaxCGDispl         0.2 Bohr      # Default: 0.2 Bohr
#MD.MaxForceTol        0.02 eV/Ang   # Default: 0.04 eV/Ang
#MD.MaxStressTol       1.0 GPa       # Default: 1.0 GPa
# Geometry Constraints
#%block GeometryConstraints
#	position from 1 to 44
#%endblock GeometryConstraints
************************** End of input data file *****************************

reinit: -----------------------------------------------------------------------
reinit: System Name: GRP_doping
reinit: -----------------------------------------------------------------------
reinit: System Label: GRP_doping                                                  
reinit: -----------------------------------------------------------------------

initatom: Reading input for the pseudopotentials and atomic orbitals ----------
 Species number:            1  Label: N Atomic number:           7
 Species number:            2  Label: C Atomic number:           6
Ground state valence configuration:   2s02  2p03
Reading pseudopotential information in formatted form from N.psf

Valence configuration for pseudopotential generation:
2s( 2.00) rc: 1.48
2p( 3.00) rc: 1.48
3d( 0.00) rc: 1.48
4f( 0.00) rc: 1.48
Ground state valence configuration:   2s02  2p02
Reading pseudopotential information in formatted form from C.psf

Valence configuration for pseudopotential generation:
2s( 2.00) rc: 1.54
2p( 2.00) rc: 1.54
3d( 0.00) rc: 1.54
4f( 0.00) rc: 1.54
For N, standard SIESTA heuristics set lmxkb to 3
 (one more than the basis l, including polarization orbitals).
Use PS.lmax or PS.KBprojectors blocks to override.
For C, standard SIESTA heuristics set lmxkb to 3
 (one more than the basis l, including polarization orbitals).
Use PS.lmax or PS.KBprojectors blocks to override.

<basis_specs>
===============================================================================
N                    Z=   7    Mass=  14.010        Charge= 0.17977+309
Lmxo=1 Lmxkb= 3    BasisType=split      Semic=F
L=0  Nsemic=0  Cnfigmx=2
          n=1  nzeta=2  polorb=0
            splnorm:   0.15000    
               vcte:    0.0000    
               rinn:    0.0000    
                rcs:    0.0000      0.0000    
            lambdas:    1.0000      1.0000    
L=1  Nsemic=0  Cnfigmx=2
          n=1  nzeta=2  polorb=1
            splnorm:   0.15000    
               vcte:    0.0000    
               rinn:    0.0000    
                rcs:    0.0000      0.0000    
            lambdas:    1.0000      1.0000    
-------------------------------------------------------------------------------
L=0  Nkbl=1  erefs: 0.17977+309
L=1  Nkbl=1  erefs: 0.17977+309
L=2  Nkbl=1  erefs: 0.17977+309
L=3  Nkbl=1  erefs: 0.17977+309
===============================================================================
</basis_specs>

atom: Called for N                     (Z =   7)

read_vps: Pseudopotential generation method:
read_vps: ATM3      Troullier-Martins                       
Total valence charge:    5.00000

read_vps: Pseudopotential includes a core correction:
read_vps: Pseudo-core for xc-correction

xc_check: Exchange-correlation functional:
xc_check: GGA Perdew, Burke & Ernzerhof 1996
V l=0 = -2*Zval/r beyond r=  1.4606
V l=1 = -2*Zval/r beyond r=  1.4606
V l=2 = -2*Zval/r beyond r=  1.4606
V l=3 = -2*Zval/r beyond r=  1.4606
All V_l potentials equal beyond r=  1.4606
This should be close to max(r_c) in ps generation
All pots = -2*Zval/r beyond r=  1.4606

VLOCAL1: 99.0% of the norm of Vloc inside     20.347 Ry
VLOCAL1: 99.9% of the norm of Vloc inside     46.372 Ry
atom: Maximum radius for 4*pi*r*r*local-pseudopot. charge    1.76189
atom: Maximum radius for r*vlocal+2*Zval:    1.53550
GHOST: No ghost state for L =  0
GHOST: No ghost state for L =  1
GHOST: No ghost state for L =  2
GHOST: No ghost state for L =  3

KBgen: Kleinman-Bylander projectors: 
   l= 0   rc=  1.634559   el= -1.363963   Ekb=  5.296955   kbcos=  0.335621
   l= 1   rc=  1.614250   el= -0.521451   Ekb= -5.259161   kbcos= -0.433408
   l= 2   rc=  1.718383   el=  0.001991   Ekb= -1.271464   kbcos= -0.007566
   l= 3   rc=  1.761893   el=  0.003093   Ekb= -0.494769   kbcos= -0.001015

KBgen: Total number of  Kleinman-Bylander projectors:   16
atom: -------------------------------------------------------------------------

atom: SANKEY-TYPE ORBITALS:
atom: Selected multiple-zeta basis: split     

SPLIT: Orbitals with angular momentum L= 0

SPLIT: Basis orbitals for state 2s

SPLIT: PAO cut-off radius determined from an
SPLIT: energy shift=  0.007350 Ry

   izeta = 1
                 lambda =    1.000000
                     rc =    4.071465
                 energy =   -1.356470
                kinetic =    1.176977
    potential(screened) =   -2.533447
       potential(ionic) =   -8.057990

   izeta = 2
                 rmatch =    2.905100
              splitnorm =    0.150000
                 energy =   -1.158343
                kinetic =    1.813009
    potential(screened) =   -2.971352
       potential(ionic) =   -8.901931

SPLIT: Orbitals with angular momentum L= 1

SPLIT: Basis orbitals for state 2p

SPLIT: PAO cut-off radius determined from an
SPLIT: energy shift=  0.007350 Ry

   izeta = 1
                 lambda =    1.000000
                     rc =    4.972977
                 energy =   -0.513884
                kinetic =    3.441732
    potential(screened) =   -3.955616
       potential(ionic) =   -9.287901

   izeta = 2
                 rmatch =    3.054066
              splitnorm =    0.150000
                 energy =   -0.318226
                kinetic =    5.125348
    potential(screened) =   -5.443573
       potential(ionic) =  -11.380999

POLgen: Perturbative polarization orbital with L=  2

POLgen: Polarization orbital for state 2p

   izeta = 1
                     rc =    4.972977
                 energy =    1.607437
                kinetic =    3.268125
    potential(screened) =   -1.660688
       potential(ionic) =   -5.973652
atom: Total number of Sankey-type orbitals: 13

atm_pop: Valence configuration (for local Pseudopot. screening):
 2s( 2.00)                                                            
 2p( 3.00)                                                            
Vna: chval, zval:    5.00000   5.00000

Vna:  Cut-off radius for the neutral-atom potential:   4.972977
comcore: Pseudo-core radius Rcore=  1.554824

atom: _________________________________________________________________________

<basis_specs>
===============================================================================
C                    Z=   6    Mass=  12.010        Charge= 0.17977+309
Lmxo=1 Lmxkb= 3    BasisType=split      Semic=F
L=0  Nsemic=0  Cnfigmx=2
          n=1  nzeta=2  polorb=0
            splnorm:   0.15000    
               vcte:    0.0000    
               rinn:    0.0000    
                rcs:    0.0000      0.0000    
            lambdas:    1.0000      1.0000    
L=1  Nsemic=0  Cnfigmx=2
          n=1  nzeta=2  polorb=1
            splnorm:   0.15000    
               vcte:    0.0000    
               rinn:    0.0000    
                rcs:    0.0000      0.0000    
            lambdas:    1.0000      1.0000    
-------------------------------------------------------------------------------
L=0  Nkbl=1  erefs: 0.17977+309
L=1  Nkbl=1  erefs: 0.17977+309
L=2  Nkbl=1  erefs: 0.17977+309
L=3  Nkbl=1  erefs: 0.17977+309
===============================================================================
</basis_specs>

atom: Called for C                     (Z =   6)

read_vps: Pseudopotential generation method:
read_vps: ATM3      Troullier-Martins                       
Total valence charge:    4.00000

read_vps: Pseudopotential includes a core correction:
read_vps: Pseudo-core for xc-correction

xc_check: Exchange-correlation functional:
xc_check: GGA Perdew, Burke & Ernzerhof 1996
V l=0 = -2*Zval/r beyond r=  1.5227
V l=1 = -2*Zval/r beyond r=  1.5227
V l=2 = -2*Zval/r beyond r=  1.5227
V l=3 = -2*Zval/r beyond r=  1.5038
All V_l potentials equal beyond r=  1.5227
This should be close to max(r_c) in ps generation
All pots = -2*Zval/r beyond r=  1.5227

VLOCAL1: 99.0% of the norm of Vloc inside     18.722 Ry
VLOCAL1: 99.9% of the norm of Vloc inside     42.668 Ry
atom: Maximum radius for 4*pi*r*r*local-pseudopot. charge    1.83678
atom: Maximum radius for r*vlocal+2*Zval:    1.58088
GHOST: No ghost state for L =  0
GHOST: No ghost state for L =  1
GHOST: No ghost state for L =  2
GHOST: No ghost state for L =  3

KBgen: Kleinman-Bylander projectors: 
   l= 0   rc=  1.704034   el= -1.009801   Ekb=  5.335044   kbcos=  0.316824
   l= 1   rc=  1.704034   el= -0.388707   Ekb= -3.785862   kbcos= -0.366464
   l= 2   rc=  1.791422   el=  0.001971   Ekb= -0.970471   kbcos= -0.009212
   l= 3   rc=  1.859892   el=  0.003065   Ekb= -0.399525   kbcos= -0.001223

KBgen: Total number of  Kleinman-Bylander projectors:   16
atom: -------------------------------------------------------------------------

atom: SANKEY-TYPE ORBITALS:
atom: Selected multiple-zeta basis: split     

SPLIT: Orbitals with angular momentum L= 0

SPLIT: Basis orbitals for state 2s

SPLIT: PAO cut-off radius determined from an
SPLIT: energy shift=  0.007350 Ry

   izeta = 1
                 lambda =    1.000000
                     rc =    4.632753
                 energy =   -1.002270
                kinetic =    0.855760
    potential(screened) =   -1.858031
       potential(ionic) =   -5.417575

   izeta = 2
                 rmatch =    3.431921
              splitnorm =    0.150000
                 energy =   -0.867111
                kinetic =    1.300804
    potential(screened) =   -2.167915
       potential(ionic) =   -5.962684

SPLIT: Orbitals with angular momentum L= 1

SPLIT: Basis orbitals for state 2p

SPLIT: PAO cut-off radius determined from an
SPLIT: energy shift=  0.007350 Ry

   izeta = 1
                 lambda =    1.000000
                     rc =    5.658549
                 energy =   -0.381140
                kinetic =    2.399701
    potential(screened) =   -2.780841
       potential(ionic) =   -6.206085

   izeta = 2
                 rmatch =    3.653288
              splitnorm =    0.150000
                 energy =   -0.249149
                kinetic =    3.542762
    potential(screened) =   -3.791911
       potential(ionic) =   -7.581078

POLgen: Perturbative polarization orbital with L=  2

POLgen: Polarization orbital for state 2p

   izeta = 1
                     rc =    5.658549
                 energy =    1.109913
                kinetic =    2.304789
    potential(screened) =   -1.194876
       potential(ionic) =   -4.013592
atom: Total number of Sankey-type orbitals: 13

atm_pop: Valence configuration (for local Pseudopot. screening):
 2s( 2.00)                                                            
 2p( 2.00)                                                            
Vna: chval, zval:    4.00000   4.00000

Vna:  Cut-off radius for the neutral-atom potential:   5.658549
comcore: Pseudo-core radius Rcore=  1.791422

atom: _________________________________________________________________________

prinput: Basis input ----------------------------------------------------------

PAO.BasisType split     

%block ChemicalSpeciesLabel
    1    7 N                       # Species index, atomic number, species label
    2    6 C                       # Species index, atomic number, species label
%endblock ChemicalSpeciesLabel

%block PAO.Basis                 # Define Basis set
N                     2                    # Species label, number of l-shells
 n=2   0   2                         # n, l, Nzeta 
   4.071      2.905   
   1.000      1.000   
 n=2   1   2 P   1                   # n, l, Nzeta, Polarization, NzetaPol
   4.973      3.054   
   1.000      1.000   
C                     2                    # Species label, number of l-shells
 n=2   0   2                         # n, l, Nzeta 
   4.633      3.432   
   1.000      1.000   
 n=2   1   2 P   1                   # n, l, Nzeta, Polarization, NzetaPol
   5.659      3.653   
   1.000      1.000   
%endblock PAO.Basis

prinput: ----------------------------------------------------------------------

coor:   Atomic-coordinates input format  =     Cartesian coordinates
coor:                                          (in Angstroms)

siesta: Atomic coordinates (Bohr) and species
siesta:      2.23549   1.32088   0.00000  1        1
siesta:      9.21971   2.66443   0.00000  1        2
siesta:      4.56357   2.66443   0.00000  2        3
siesta:     32.50244  21.48363   0.00000  2        4
siesta:     34.83052  22.82718   0.00000  2        5
siesta:     34.83048  17.45108   0.00000  2        6
siesta:     37.15856  18.79463   0.00000  2        7
siesta:     32.50239  13.41853   0.00000  2        8
siesta:     34.83046  14.76208   0.00000  2        9
siesta:     30.17428   9.38598   0.00000  2       10
siesta:     32.50237  10.72953   0.00000  2       11
siesta:     27.84618   5.35343   0.00000  2       12
siesta:     30.17426   6.69698   0.00000  2       13
siesta:     27.84630  21.48363   0.00000  2       14
siesta:     30.17438  22.82718   0.00000  2       15
siesta:      6.89163   1.32088   0.00000  2       16
siesta:     11.54777   1.32088   0.00000  2       17
siesta:     13.87585   2.66443   0.00000  2       18
siesta:     16.20391   1.32088   0.00000  2       19
siesta:     18.53199   2.66443   0.00000  2       20
siesta:     20.86194   1.32088   0.00000  2       21
siesta:     23.19002   2.66443   0.00000  2       22
siesta:     25.51808   1.32088   0.00000  2       23
siesta:     27.84616   2.66443   0.00000  2       24
siesta:      4.56359   5.35343   0.00000  2       25
siesta:      6.89167   6.69698   0.00000  2       26
siesta:      9.21973   5.35343   0.00000  2       27
siesta:     11.54781   6.69698   0.00000  2       28
siesta:     13.87587   5.35343   0.00000  2       29
siesta:     16.20395   6.69698   0.00000  2       30
siesta:     18.53390   5.35343   0.00000  2       31
siesta:     20.86198   6.69698   0.00000  2       32
siesta:     23.19004   5.35343   0.00000  2       33
siesta:     25.51812   6.69698   0.00000  2       34
siesta:      6.89169   9.38598   0.00000  2       35
siesta:      9.21977  10.72953   0.00000  2       36
siesta:     11.54783   9.38598   0.00000  2       37
siesta:     13.87591  10.72953   0.00000  2       38
siesta:     16.20397   9.38598   0.00000  2       39
siesta:     18.53205  10.72953   0.00000  2       40
siesta:     20.86200   9.38598   0.00000  2       41
siesta:     23.19008  10.72953   0.00000  2       42
siesta:      9.21979  13.41853   0.00000  2       43
siesta:     11.54787  14.76208   0.00000  2       44
siesta:     13.87593  13.41853   0.00000  2       45
siesta:     16.20401  14.76208   0.00000  2       46
siesta:     18.53396  13.41853   0.00000  2       47
siesta:     20.86204  14.76208   0.00000  2       48
siesta:     11.54789  17.45108   0.00000  2       49
siesta:     13.87597  18.79463   0.00000  2       50
siesta:     16.20403  17.45108   0.00000  2       51
siesta:     18.53211  18.79463   0.00000  2       52
siesta:     13.87599  21.48363   0.00000  2       53
siesta:     16.20407  22.82718   0.00000  2       54
siesta:     18.53402  21.48363   0.00000  2       55
siesta:     20.86210  22.82718   0.00000  2       56
siesta:     25.51814   9.38598   0.00000  2       57
siesta:     27.84622  10.72953   0.00000  2       58
siesta:     23.19010  13.41853   0.00000  2       59
siesta:     25.51818  14.76208   0.00000  2       60
siesta:     20.86206  17.45108   0.00000  2       61
siesta:     23.19014  18.79463   0.00000  2       62
siesta:     27.84624  13.41853   0.00000  2       63
siesta:     30.17432  14.76208   0.00000  2       64
siesta:     25.51820  17.45108   0.00000  2       65
siesta:     27.84628  18.79463   0.00000  2       66
siesta:     23.19016  21.48363   0.00000  2       67
siesta:     25.51824  22.82718   0.00000  2       68
siesta:     30.17434  17.45108   0.00000  2       69
siesta:     32.50243  18.79463   0.00000  2       70
siesta:     37.16048  21.48363   0.00000  2       71
siesta:     39.48855  22.82718   0.00000  2       72

siesta: System type = slab      

initatomlists: Number of atoms, orbitals, and projectors:     72   936  1152

siesta: ******************** Simulation parameters ****************************
siesta:
siesta: The following are some of the parameters of the simulation.
siesta: A complete list of the parameters used, including default values,
siesta: can be found in file out.fdf
siesta:
redata: Non-Collinear-spin run           =     F
redata: SpinPolarized (Up/Down) run      =     F
redata: Number of spin components        =     1
redata: Long output                      =     F
redata: Number of Atomic Species         =        2
redata: Charge density info will appear in .RHO file
redata: Write Mulliken Pop.              =     NO
redata: Mesh Cutoff                      =   200.0000  Ry
redata: Net charge of the system         =     0.0000 |e|
redata: Max. number of SCF Iter          =      500
redata: SCF convergence failure will abort job
redata: Performing Pulay mixing using    =    10 iterations
redata: Mix DM in first SCF step ?       =     F
redata: Write Pulay info on disk?        =     F
redata: Discard 1st Pulay DM after  kick =     F
redata: New DM Mixing Weight             =     0.0500
redata: New DM Occupancy tolerance       = 0.000000000001
redata: No kicks to SCF
redata: DM Mixing Weight for Kicks       =     0.5000
redata: DM Tolerance for SCF             =     0.000100
redata: Require Energy convergence for SCF =     F
redata: DM Energy tolerance for SCF      =     0.000100 eV
redata: Require Harris convergence for SCF =     F
redata: DM Harris energy tolerance for SCF =     0.000100 eV
redata: Using Saved Data (generic)   =     F
redata: Use continuation files for DM    =     T
redata: Neglect nonoverlap interactions  =     F
redata: Method of Calculation            =     Diagonalization
redata: Divide and Conquer               =     T
redata: Electronic Temperature           =     0.0019  Ry
redata: Fix the spin of the system       =     F
redata: Dynamics option                  =     Verlet MD run
redata: Initial MD time step             =        1
redata:   Final MD time step             =        1
redata: Length of MD time step           =     1.0000  fs
redata: Initial Temperature of MD run    =     0.0000  K
redata: Perform a MD quench              =     F
redata: ***********************************************************************
Total number of electrons:   290.000000
Total ionic charge:   290.000000

* ProcessorY, Blocksize:    2  24

k-point displ. along   1 input, could be:     0.00    0.50
k-point displ. along   2 input, could be:     0.00    0.50
 Kpoints in:          364 . Kpoints trimmed:          352

siesta: k-grid: Number of k-points =   352
siesta: k-grid: Cutoff (effective) =     5.000 Ang
siesta: k-grid: Supercell and displacements
siesta: k-grid:   26   0   0      0.000
siesta: k-grid:    0  26   0      0.000
siesta: k-grid:    0   0   1      0.000
Naive supercell factors:     2    2    2

superc: Internal auxiliary supercell:     2 x     2 x     2  =       8
superc: Number of atoms, orbitals, and projectors:    576   7488   9216

* Maximum dynamic memory allocated =     6 MB

siesta:                 ==============================
                            Begin MD step =      1
                        ==============================

superc: Internal auxiliary supercell:     2 x     2 x     2  =       8
superc: Number of atoms, orbitals, and projectors:    576   7488   9216

outcell: Unit cell vectors (Ang):
       14.785000    0.000000    0.000000
        7.392500   12.804185    0.000000
        0.000000    0.000000   10.000000

outcell: Cell vector modules (Ang)   :   14.785000   14.785000   10.000000
outcell: Cell angles (23,13,12) (deg):     90.0000     90.0000     60.0000
outcell: Cell volume (Ang**3)        :   1893.0988
New_DM. Step:     1
Initializing Density Matrix...

iodm: Reading Density Matrix from files
 Read DM has different structure. Fixing...

InitMesh: MESH =   120 x   120 x    90 =     1296000
InitMesh: Mesh cutoff (required, used) =   200.000   223.865 Ry

* Maximum dynamic memory allocated =   193 MB

stepf: Fermi-Dirac step function

siesta: Program's energy decomposition (eV):
siesta: Ebs     =     -4238.401510
siesta: Eions   =     18724.504759
siesta: Ena     =      3995.612266
siesta: Ekin    =      7968.858014
siesta: Enl     =      -833.921086
siesta: DEna    =      -288.631272
siesta: DUscf   =        80.216642
siesta: DUext   =         0.000000
siesta: Exc     =     -4090.498866
siesta: eta*DQ  =         0.000000
siesta: Emadel  =         0.000000
siesta: Emeta   =         0.000000
siesta: Emolmec =         0.000000
siesta: Ekinion =         0.000000
siesta: Eharris =    -12222.852573
siesta: Etot    =    -11892.869061
siesta: FreeEng =    -11892.869061

siesta: iscf   Eharris(eV)      E_KS(eV)   FreeEng(eV)   dDmax  Ef(eV)
siesta:    1   -12222.8526   -11892.8691   -11892.8691  3.3478 -4.6653
timer: Routine,Calls,Time,% = IterSCF        1    6658.447  99.81
elaps: Routine,Calls,Wall,% = IterSCF        1     833.346  99.81
siesta:    2   -26139.6427    -8775.8348    -8775.8844  6.2820-32.4206
siesta:    3   -12787.6427   -11696.6910   -11696.7059  1.1898 -3.4590
siesta:    4   -12017.9349   -11782.0871   -11782.1084  0.9482 -3.7076
siesta:    5   -11941.5907   -11811.3943   -11811.4175  0.8020 -3.7437
siesta:    6   -11932.7211   -11830.1496   -11830.1631  0.7316 -3.6471
siesta:    7   -11930.1492   -11841.5820   -11841.5964  0.7082 -3.6304
siesta:    8   -11929.0679   -11850.1169   -11850.1294  0.6867 -3.6416
siesta:    9   -11923.0433   -11972.4387   -11972.4516  0.2671 -3.8525
siesta:   10   -11927.6888   -12070.0226   -12070.0394  0.7355 -4.3703
siesta:   11   -11927.7399   -12071.1866   -12071.2123  0.7412 -4.3716
siesta:   12   -11921.7540   -11936.7583   -11936.7843  0.1919 -3.8308
siesta:   13   -11922.5723   -11923.6791   -11923.6974  0.1054 -3.8192
siesta:   14   -11921.7045   -11919.1478   -11919.1654  0.0460 -3.8496
siesta:   15   -11921.6642   -11917.1939   -11917.2113  0.0523 -3.8297
siesta:   16   -11921.6157   -11918.4361   -11918.4524  0.0430 -3.8264
siesta:   17   -11921.6133   -11919.0273   -11919.0437  0.0410 -3.8348
siesta:   18   -11921.6038   -11920.3915   -11920.4083  0.0193 -3.8336
siesta:   19   -11921.6049   -11920.9562   -11920.9732  0.0106 -3.8272
siesta:   20   -11921.6021   -11921.3024   -11921.3194  0.0082 -3.8310
siesta:   21   -11921.6024   -11921.0990   -11921.1159  0.0041 -3.8314
siesta:   22   -11921.6017   -11921.4800   -11921.4969  0.0030 -3.8342
siesta:   23   -11921.6016   -11921.5854   -11921.6024  0.0026 -3.8347
siesta:   24   -11921.6014   -11921.5979   -11921.6149  0.0015 -3.8356
siesta:   25   -11921.6014   -11921.5701   -11921.5872  0.0013 -3.8356
siesta:   26   -11921.6014   -11921.5832   -11921.6003  0.0008 -3.8359
siesta:   27   -11921.6013   -11921.5896   -11921.6067  0.0007 -3.8360
siesta:   28   -11921.6014   -11921.5935   -11921.6106  0.0003 -3.8352
siesta:   29   -11921.6014   -11921.5960   -11921.6131  0.0002 -3.8351
siesta:   30   -11921.6014   -11921.6015   -11921.6186  0.0001 -3.8351

siesta: E_KS(eV) =           -11921.6028

siesta: E_KS - E_eggbox =    -11921.6028

siesta: Atomic forces (eV/Ang):
----------------------------------------
   Tot    0.215872   -0.284998    0.000000
----------------------------------------
   Max    0.745038
   Res    0.179016    sqrt( Sum f_i^2 / 3N )
----------------------------------------
   Max    0.745038    constrained

Stress-tensor-Voigt (kbar):      -28.15      -27.90        0.04       -0.34        0.00        0.00
(Free)E + p*V (eV/cell)   -11899.5600
Target enthalpy (eV/cell)   -11921.6199

siesta: Stress tensor (static) (eV/Ang**3):
        -0.017569   -0.000215    0.000000
        -0.000215   -0.017414    0.000000
         0.000000    0.000000    0.000025

siesta: Pressure (static):         18.67000475  kBar

siesta: Stress tensor (total) (eV/Ang**3):
        -0.017569   -0.000215    0.000000
        -0.000215   -0.017414    0.000000
         0.000000    0.000000    0.000025

siesta: Pressure (total):         18.67000475  kBar

siesta: Temp_ion =       0.000 K

* Maximum dynamic memory allocated =   208 MB

siesta: Program's energy decomposition (eV):
siesta: Ebs     =     -3990.753168
siesta: Eions   =     18724.504759
siesta: Ena     =      3995.612266
siesta: Ekin    =      7999.085320
siesta: Enl     =      -852.243825
siesta: DEna    =      -277.949787
siesta: DUscf   =        24.505410
siesta: DUext   =         0.000000
siesta: Exc     =     -4086.107403
siesta: eta*DQ  =         0.000000
siesta: Emadel  =         0.000000
siesta: Emeta   =         0.000000
siesta: Emolmec =         0.000000
siesta: Ekinion =         0.000000
siesta: Eharris =    -11921.601352
siesta: Etot    =    -11921.602779
siesta: FreeEng =    -11921.619865

siesta: Final energy (eV):
siesta:  Band Struct. =   -3990.753168
siesta:       Kinetic =    7999.085320
siesta:       Hartree =   23486.665491
siesta:    Ext. field =       0.000000
siesta:   Exch.-corr. =   -4086.107403
siesta:  Ion-electron =  -54365.165031
siesta:       Ion-ion =   15043.918844
siesta:       Ekinion =       0.000000
siesta:         Total =  -11921.602779

siesta: Atomic forces (eV/Ang):
siesta:      1    0.071393   -0.219670    0.000000
siesta:      2   -0.066901    0.217833    0.000000
siesta:      3    0.019809   -0.345880    0.000000
siesta:      4    0.114542   -0.032404    0.000000
siesta:      5   -0.103260    0.115002    0.000000
siesta:      6    0.085055    0.038714    0.000000
siesta:      7    0.018838   -0.164737    0.000000
siesta:      8    0.008684   -0.061332    0.000000
siesta:      9    0.101813   -0.052293    0.000000
siesta:     10    0.002307   -0.102441    0.000000
siesta:     11    0.008962    0.011279    0.000000
siesta:     12    0.141451   -0.535318    0.000000
siesta:     13    0.420886    0.119687    0.000000
siesta:     14    0.108949    0.177937    0.000000
siesta:     15   -0.036864    0.107967    0.000000
siesta:     16   -0.011086    0.310410    0.000000
siesta:     17   -0.452463    0.076648    0.000000
siesta:     18   -0.510678    0.137614    0.000000
siesta:     19   -0.024071   -0.318278    0.000000
siesta:     20    0.021897    0.144623    0.000000
siesta:     21   -0.012580   -0.178884    0.000000
siesta:     22    0.031471    0.284642    0.000000
siesta:     23    0.519851   -0.170915    0.000000
siesta:     24    0.468445   -0.107091    0.000000
siesta:     25   -0.745038   -0.107461    0.000000
siesta:     26    0.347409   -0.598514    0.000000
siesta:     27    0.018669   -0.563678    0.000000
siesta:     28   -0.194932   -0.442038    0.000000
siesta:     29    0.366653    0.139695    0.000000
siesta:     30   -0.267037   -0.176325    0.000000
siesta:     31    0.104714   -0.098703    0.000000
siesta:     32   -0.109036    0.028370    0.000000
siesta:     33    0.045816   -0.098080    0.000000
siesta:     34   -0.104279   -0.182433    0.000000
siesta:     35    0.162151    0.076690    0.000000
siesta:     36    0.029299   -0.099532    0.000000
siesta:     37   -0.242799    0.067763    0.000000
siesta:     38    0.089180   -0.061215    0.000000
siesta:     39    0.012515    0.152854    0.000000
siesta:     40   -0.038727   -0.053435    0.000000
siesta:     41    0.010022   -0.027085    0.000000
siesta:     42   -0.005689   -0.082172    0.000000
siesta:     43   -0.059894    0.119422    0.000000
siesta:     44    0.012463   -0.018602    0.000000
siesta:     45   -0.003350    0.012056    0.000000
siesta:     46    0.081254   -0.130718    0.000000
siesta:     47   -0.121632    0.046101    0.000000
siesta:     48   -0.003788    0.051849    0.000000
siesta:     49   -0.096084    0.056472    0.000000
siesta:     50    0.246919   -0.077979    0.000000
siesta:     51   -0.024901    0.095529    0.000000
siesta:     52   -0.130517   -0.087821    0.000000
siesta:     53    0.221863    0.433836    0.000000
siesta:     54    0.026734    0.560691    0.000000
siesta:     55   -0.383571    0.597860    0.000000
siesta:     56    0.730859    0.123396    0.000000
siesta:     57    0.020532    0.023549    0.000000
siesta:     58   -0.015705    0.023126    0.000000
siesta:     59    0.056274    0.046964    0.000000
siesta:     60   -0.092275    0.021669    0.000000
siesta:     61   -0.018924   -0.016291    0.000000
siesta:     62    0.000113    0.091159    0.000000
siesta:     63    0.097438   -0.030536    0.000000
siesta:     64   -0.050695   -0.055022    0.000000
siesta:     65    0.021042   -0.031723    0.000000
siesta:     66   -0.015240   -0.034241    0.000000
siesta:     67   -0.402514   -0.128145    0.000000
siesta:     68   -0.140308    0.547619    0.000000
siesta:     69    0.006524    0.074427    0.000000
siesta:     70   -0.033892    0.025895    0.000000
siesta:     71    0.262712    0.169204    0.000000
siesta:     72   -0.380905   -0.122559    0.000000
siesta: ----------------------------------------
siesta:    Tot    0.215872   -0.284998    0.000000

siesta: Stress tensor (static) (eV/Ang**3):
siesta:    -0.017569   -0.000215    0.000000
siesta:    -0.000215   -0.017414    0.000000
siesta:     0.000000    0.000000    0.000025

siesta: Cell volume =       1893.098801 Ang**3

siesta: Pressure (static):
siesta:                Solid            Molecule  Units
siesta:           0.00012691          0.00006195  Ry/Bohr**3
siesta:           0.01165277          0.00568825  eV/Ang**3
siesta:          18.67000475          9.11367938  kBar
(Free)E+ p_basis*V_orbitals  =      -11891.168173
(Free)Eharris+ p_basis*V_orbitals  =      -11891.168005

siesta: Electric dipole (a.u.)  =    0.000000    0.000000    0.000000
siesta: Electric dipole (Debye) =    0.000000    0.000000    0.000000

* Maximum dynamic memory allocated : Node    0 =   207 MB
* Maximum dynamic memory allocated : Node    1 =    75 MB
* Maximum dynamic memory allocated : Node    2 =    78 MB
* Maximum dynamic memory allocated : Node    3 =   197 MB
* Maximum dynamic memory allocated : Node    4 =   208 MB
* Maximum dynamic memory allocated : Node    5 =    75 MB
* Maximum dynamic memory allocated : Node    6 =    77 MB
* Maximum dynamic memory allocated : Node    7 =   192 MB

* Maximum memory occured during matrixMtoO                    

timer: CPU execution times:
timer:  Routine       Calls   Time/call    Tot.time        %
timer:  siesta            1  196644.530  196644.530   100.00
timer:  Setup             1       3.801       3.801     0.00
timer:  bands             1       0.015       0.015     0.00
timer:  writewave         1       0.042       0.042     0.00
timer:  KSV_init          1       0.009       0.009     0.00
timer:  IterMD            1  196632.768  196632.768    99.99
timer:  hsparse           1       0.258       0.258     0.00
timer:  overlap           1       4.667       4.667     0.00
timer:  IterSCF          30    6548.394  196451.808    99.90
timer:  kinefsm           2       2.427       4.853     0.00
timer:  nlefsm            2      19.359      38.717     0.02
timer:  DHSCF            31      92.025    2852.782     1.45
timer:  DHSCF1            1       0.767       0.767     0.00
timer:  DHSCF2            1      33.426      33.426     0.02
timer:  REORD           250       0.010       2.519     0.00
timer:  POISON           32       2.246      71.877     0.04
timer:  DHSCF3           31      89.816    2784.289     1.42
timer:  rhoofd           31      17.189     532.847     0.27
timer:  cellXC           31       3.539     109.694     0.06
timer:  vmat             31      45.912    1423.271     0.72
timer:  MolMec            2       0.000       0.000     0.00
timer:  diagon           30    6454.809  193644.267    98.47
timer:  c-eigval      10560       6.684   70584.314    35.89
timer:  c-buildHS     10560       0.119    1261.763     0.64
timer:  cdiag         21120       6.878  145270.469    73.87
timer:  cdiag1        21120       0.428    9034.588     4.59
timer:  cdiag2        21120       1.911   40366.053    20.53
timer:  cdiag3        21120       3.950   83421.998    42.42
timer:  cdiag4        21120       0.203    4288.434     2.18
timer:  c-eigvec      10560       7.263   76700.934    39.00
timer:  c-buildD      10560       4.382   46271.001    23.53
timer:  DHSCF4            1      32.619      32.619     0.02
timer:  dfscf             1      30.750      30.750     0.02
timer:  overfsm           1       0.377       0.377     0.00
timer:  optical           1       7.010       7.010     0.00
  

elaps: ELAPSED times:
elaps:  Routine       Calls   Time/call    Tot.time        %
elaps:  siesta            1   24620.293   24620.293   100.00
elaps:  Setup             1       0.490       0.490     0.00
elaps:  bands             1       0.002       0.002     0.00
elaps:  writewave         1       0.006       0.006     0.00
elaps:  KSV_init          1       0.001       0.001     0.00
elaps:  IterMD            1   24618.798   24618.798    99.99
elaps:  hsparse           1       0.033       0.033     0.00
elaps:  overlap           1       0.964       0.964     0.00
elaps:  IterSCF          30     819.876   24596.276    99.90
elaps:  kinefsm           2       0.494       0.987     0.00
elaps:  nlefsm            2       2.342       4.684     0.02
elaps:  DHSCF            31      11.616     360.103     1.46
elaps:  DHSCF1            1       0.099       0.099     0.00
elaps:  DHSCF2            1       4.178       4.178     0.02
elaps:  REORD           250       0.001       0.334     0.00
elaps:  POISON           32       0.281       9.007     0.04
elaps:  DHSCF3           31      11.236     348.306     1.41
elaps:  rhoofd           31       3.716     115.199     0.47
elaps:  cellXC           31       0.442      13.706     0.06
elaps:  vmat             31       5.743     178.027     0.72
elaps:  MolMec            2       0.000       0.000     0.00
elaps:  diagon           30     808.165   24244.957    98.48
elaps:  c-eigval      10560       0.836    8831.277    35.87
elaps:  c-buildHS     10560       0.016     170.147     0.69
elaps:  cdiag         21120       0.849   17941.380    72.87
elaps:  cdiag1        21120       0.053    1122.692     4.56
elaps:  cdiag2        21120       0.239    5050.526    20.51
elaps:  cdiag3        21120       0.495   10451.235    42.45
elaps:  cdiag4        21120       0.026     545.426     2.22
elaps:  c-eigvec      10560       0.892    9420.087    38.26
elaps:  c-buildD      10560       0.557    5883.574    23.90
elaps:  DHSCF4            1       7.294       7.294     0.03
elaps:  dfscf             1       6.910       6.910     0.03
elaps:  overfsm           1       0.047       0.047     0.00
elaps:  optical           1       0.001       0.001     0.00
  
>> End of run:  27-NOV-2015   0:17:06
