Siesta Version:                                        siesta-3.2-pl-3
Architecture  : x86_64-unknown-linux-gnu--unknown
Compiler flags: mpiifort -g -O2 -fPIC -xSSE4.1 -fp-model source -shared-intel 
PARALLEL version

* Running on    8 nodes in parallel
>> Start of run:  26-NOV-2015  17:20:04

                           ***********************       
                           *  WELCOME TO SIESTA  *       
                           ***********************       

reinit: Reading from standard input
************************** Dump of input data file ****************************
#(1) General system descriptors
SystemName            GRP_doping    # Descriptive name of the system
SystemLabel           GRP_doping    # Short name for naming files
%include STRUCT.fdf
%include KPT.fdf
%include BASIS.fdf
#%include TS.fdf # for transiesta calculation
#(4) DFT, Grid, SCF
XC.functional         GGA           # LDA or GGA (default = LDA)
XC.authors            PBE           # CA (Ceperley-Aldr) = PZ
                                    #    (Perdew-Zunger) - LDA - Default
                                    # PW92 (Perdew-Wang-92) - LDA
                                    # PBE (Perdew-Burke-Ernzerhof) - GGA
MeshCutoff            200.000000    Ry      # Default: 50.0 Ry ~ 0.444 Bohr
                                    #         100.0 Ry ~ 0.314 Bohr
MaxSCFIterations      500           # Default: 50
DM.MixingWeight       0.05          # Default: 0.25
DM.NumberPulay        10            # Default: 0
DM.PulayOnFile        F             # SystemLabel.P1, SystemLabel.P2
DM.Tolerance          1.d-4         # Default: 1.d-4
DM.UseSaveDM          .true.        # because of the bug
SCFMustConverge       .true.
NeglNonOverlapInt     F             # Default: F
#(5) Eigenvalue problem: order-N or diagonalization
SolutionMethod        Diagon        # or Transiesta
ElectronicTemperature 300.0 K       # Default: 300.0 K
#(6) Molecular dynamics and relaxations
#MD.TypeOfRun          CG            # Type of dynamics:
#MD.VariableCell       F
#MD.NumCGsteps         0           # 0 for single-point / 100 for gopt
#MD.MaxCGDispl         0.2 Bohr      # Default: 0.2 Bohr
#MD.MaxForceTol        0.02 eV/Ang   # Default: 0.04 eV/Ang
#MD.MaxStressTol       1.0 GPa       # Default: 1.0 GPa
# Geometry Constraints
#%block GeometryConstraints
#	position from 1 to 44
#%endblock GeometryConstraints
************************** End of input data file *****************************

reinit: -----------------------------------------------------------------------
reinit: System Name: GRP_doping
reinit: -----------------------------------------------------------------------
reinit: System Label: GRP_doping                                                  
reinit: -----------------------------------------------------------------------

initatom: Reading input for the pseudopotentials and atomic orbitals ----------
 Species number:            1  Label: N Atomic number:           7
 Species number:            2  Label: C Atomic number:           6
Ground state valence configuration:   2s02  2p03
Reading pseudopotential information in formatted form from N.psf

Valence configuration for pseudopotential generation:
2s( 2.00) rc: 1.48
2p( 3.00) rc: 1.48
3d( 0.00) rc: 1.48
4f( 0.00) rc: 1.48
Ground state valence configuration:   2s02  2p02
Reading pseudopotential information in formatted form from C.psf

Valence configuration for pseudopotential generation:
2s( 2.00) rc: 1.54
2p( 2.00) rc: 1.54
3d( 0.00) rc: 1.54
4f( 0.00) rc: 1.54
For N, standard SIESTA heuristics set lmxkb to 3
 (one more than the basis l, including polarization orbitals).
Use PS.lmax or PS.KBprojectors blocks to override.
For C, standard SIESTA heuristics set lmxkb to 3
 (one more than the basis l, including polarization orbitals).
Use PS.lmax or PS.KBprojectors blocks to override.

<basis_specs>
===============================================================================
N                    Z=   7    Mass=  14.010        Charge= 0.17977+309
Lmxo=1 Lmxkb= 3    BasisType=split      Semic=F
L=0  Nsemic=0  Cnfigmx=2
          n=1  nzeta=2  polorb=0
            splnorm:   0.15000    
               vcte:    0.0000    
               rinn:    0.0000    
                rcs:    0.0000      0.0000    
            lambdas:    1.0000      1.0000    
L=1  Nsemic=0  Cnfigmx=2
          n=1  nzeta=2  polorb=1
            splnorm:   0.15000    
               vcte:    0.0000    
               rinn:    0.0000    
                rcs:    0.0000      0.0000    
            lambdas:    1.0000      1.0000    
-------------------------------------------------------------------------------
L=0  Nkbl=1  erefs: 0.17977+309
L=1  Nkbl=1  erefs: 0.17977+309
L=2  Nkbl=1  erefs: 0.17977+309
L=3  Nkbl=1  erefs: 0.17977+309
===============================================================================
</basis_specs>

atom: Called for N                     (Z =   7)

read_vps: Pseudopotential generation method:
read_vps: ATM3      Troullier-Martins                       
Total valence charge:    5.00000

read_vps: Pseudopotential includes a core correction:
read_vps: Pseudo-core for xc-correction

xc_check: Exchange-correlation functional:
xc_check: GGA Perdew, Burke & Ernzerhof 1996
V l=0 = -2*Zval/r beyond r=  1.4606
V l=1 = -2*Zval/r beyond r=  1.4606
V l=2 = -2*Zval/r beyond r=  1.4606
V l=3 = -2*Zval/r beyond r=  1.4606
All V_l potentials equal beyond r=  1.4606
This should be close to max(r_c) in ps generation
All pots = -2*Zval/r beyond r=  1.4606

VLOCAL1: 99.0% of the norm of Vloc inside     20.347 Ry
VLOCAL1: 99.9% of the norm of Vloc inside     46.372 Ry
atom: Maximum radius for 4*pi*r*r*local-pseudopot. charge    1.76189
atom: Maximum radius for r*vlocal+2*Zval:    1.53550
GHOST: No ghost state for L =  0
GHOST: No ghost state for L =  1
GHOST: No ghost state for L =  2
GHOST: No ghost state for L =  3

KBgen: Kleinman-Bylander projectors: 
   l= 0   rc=  1.634559   el= -1.363963   Ekb=  5.296955   kbcos=  0.335621
   l= 1   rc=  1.614250   el= -0.521451   Ekb= -5.259161   kbcos= -0.433408
   l= 2   rc=  1.718383   el=  0.001991   Ekb= -1.271464   kbcos= -0.007566
   l= 3   rc=  1.761893   el=  0.003093   Ekb= -0.494769   kbcos= -0.001015

KBgen: Total number of  Kleinman-Bylander projectors:   16
atom: -------------------------------------------------------------------------

atom: SANKEY-TYPE ORBITALS:
atom: Selected multiple-zeta basis: split     

SPLIT: Orbitals with angular momentum L= 0

SPLIT: Basis orbitals for state 2s

SPLIT: PAO cut-off radius determined from an
SPLIT: energy shift=  0.007350 Ry

   izeta = 1
                 lambda =    1.000000
                     rc =    4.071465
                 energy =   -1.356470
                kinetic =    1.176977
    potential(screened) =   -2.533447
       potential(ionic) =   -8.057990

   izeta = 2
                 rmatch =    2.905100
              splitnorm =    0.150000
                 energy =   -1.158343
                kinetic =    1.813009
    potential(screened) =   -2.971352
       potential(ionic) =   -8.901931

SPLIT: Orbitals with angular momentum L= 1

SPLIT: Basis orbitals for state 2p

SPLIT: PAO cut-off radius determined from an
SPLIT: energy shift=  0.007350 Ry

   izeta = 1
                 lambda =    1.000000
                     rc =    4.972977
                 energy =   -0.513884
                kinetic =    3.441732
    potential(screened) =   -3.955616
       potential(ionic) =   -9.287901

   izeta = 2
                 rmatch =    3.054066
              splitnorm =    0.150000
                 energy =   -0.318226
                kinetic =    5.125348
    potential(screened) =   -5.443573
       potential(ionic) =  -11.380999

POLgen: Perturbative polarization orbital with L=  2

POLgen: Polarization orbital for state 2p

   izeta = 1
                     rc =    4.972977
                 energy =    1.607437
                kinetic =    3.268125
    potential(screened) =   -1.660688
       potential(ionic) =   -5.973652
atom: Total number of Sankey-type orbitals: 13

atm_pop: Valence configuration (for local Pseudopot. screening):
 2s( 2.00)                                                            
 2p( 3.00)                                                            
Vna: chval, zval:    5.00000   5.00000

Vna:  Cut-off radius for the neutral-atom potential:   4.972977
comcore: Pseudo-core radius Rcore=  1.554824

atom: _________________________________________________________________________

<basis_specs>
===============================================================================
C                    Z=   6    Mass=  12.010        Charge= 0.17977+309
Lmxo=1 Lmxkb= 3    BasisType=split      Semic=F
L=0  Nsemic=0  Cnfigmx=2
          n=1  nzeta=2  polorb=0
            splnorm:   0.15000    
               vcte:    0.0000    
               rinn:    0.0000    
                rcs:    0.0000      0.0000    
            lambdas:    1.0000      1.0000    
L=1  Nsemic=0  Cnfigmx=2
          n=1  nzeta=2  polorb=1
            splnorm:   0.15000    
               vcte:    0.0000    
               rinn:    0.0000    
                rcs:    0.0000      0.0000    
            lambdas:    1.0000      1.0000    
-------------------------------------------------------------------------------
L=0  Nkbl=1  erefs: 0.17977+309
L=1  Nkbl=1  erefs: 0.17977+309
L=2  Nkbl=1  erefs: 0.17977+309
L=3  Nkbl=1  erefs: 0.17977+309
===============================================================================
</basis_specs>

atom: Called for C                     (Z =   6)

read_vps: Pseudopotential generation method:
read_vps: ATM3      Troullier-Martins                       
Total valence charge:    4.00000

read_vps: Pseudopotential includes a core correction:
read_vps: Pseudo-core for xc-correction

xc_check: Exchange-correlation functional:
xc_check: GGA Perdew, Burke & Ernzerhof 1996
V l=0 = -2*Zval/r beyond r=  1.5227
V l=1 = -2*Zval/r beyond r=  1.5227
V l=2 = -2*Zval/r beyond r=  1.5227
V l=3 = -2*Zval/r beyond r=  1.5038
All V_l potentials equal beyond r=  1.5227
This should be close to max(r_c) in ps generation
All pots = -2*Zval/r beyond r=  1.5227

VLOCAL1: 99.0% of the norm of Vloc inside     18.722 Ry
VLOCAL1: 99.9% of the norm of Vloc inside     42.668 Ry
atom: Maximum radius for 4*pi*r*r*local-pseudopot. charge    1.83678
atom: Maximum radius for r*vlocal+2*Zval:    1.58088
GHOST: No ghost state for L =  0
GHOST: No ghost state for L =  1
GHOST: No ghost state for L =  2
GHOST: No ghost state for L =  3

KBgen: Kleinman-Bylander projectors: 
   l= 0   rc=  1.704034   el= -1.009801   Ekb=  5.335044   kbcos=  0.316824
   l= 1   rc=  1.704034   el= -0.388707   Ekb= -3.785862   kbcos= -0.366464
   l= 2   rc=  1.791422   el=  0.001971   Ekb= -0.970471   kbcos= -0.009212
   l= 3   rc=  1.859892   el=  0.003065   Ekb= -0.399525   kbcos= -0.001223

KBgen: Total number of  Kleinman-Bylander projectors:   16
atom: -------------------------------------------------------------------------

atom: SANKEY-TYPE ORBITALS:
atom: Selected multiple-zeta basis: split     

SPLIT: Orbitals with angular momentum L= 0

SPLIT: Basis orbitals for state 2s

SPLIT: PAO cut-off radius determined from an
SPLIT: energy shift=  0.007350 Ry

   izeta = 1
                 lambda =    1.000000
                     rc =    4.632753
                 energy =   -1.002270
                kinetic =    0.855760
    potential(screened) =   -1.858031
       potential(ionic) =   -5.417575

   izeta = 2
                 rmatch =    3.431921
              splitnorm =    0.150000
                 energy =   -0.867111
                kinetic =    1.300804
    potential(screened) =   -2.167915
       potential(ionic) =   -5.962684

SPLIT: Orbitals with angular momentum L= 1

SPLIT: Basis orbitals for state 2p

SPLIT: PAO cut-off radius determined from an
SPLIT: energy shift=  0.007350 Ry

   izeta = 1
                 lambda =    1.000000
                     rc =    5.658549
                 energy =   -0.381140
                kinetic =    2.399701
    potential(screened) =   -2.780841
       potential(ionic) =   -6.206085

   izeta = 2
                 rmatch =    3.653288
              splitnorm =    0.150000
                 energy =   -0.249149
                kinetic =    3.542762
    potential(screened) =   -3.791911
       potential(ionic) =   -7.581078

POLgen: Perturbative polarization orbital with L=  2

POLgen: Polarization orbital for state 2p

   izeta = 1
                     rc =    5.658549
                 energy =    1.109913
                kinetic =    2.304789
    potential(screened) =   -1.194876
       potential(ionic) =   -4.013592
atom: Total number of Sankey-type orbitals: 13

atm_pop: Valence configuration (for local Pseudopot. screening):
 2s( 2.00)                                                            
 2p( 2.00)                                                            
Vna: chval, zval:    4.00000   4.00000

Vna:  Cut-off radius for the neutral-atom potential:   5.658549
comcore: Pseudo-core radius Rcore=  1.791422

atom: _________________________________________________________________________

prinput: Basis input ----------------------------------------------------------

PAO.BasisType split     

%block ChemicalSpeciesLabel
    1    7 N                       # Species index, atomic number, species label
    2    6 C                       # Species index, atomic number, species label
%endblock ChemicalSpeciesLabel

%block PAO.Basis                 # Define Basis set
N                     2                    # Species label, number of l-shells
 n=2   0   2                         # n, l, Nzeta 
   4.071      2.905   
   1.000      1.000   
 n=2   1   2 P   1                   # n, l, Nzeta, Polarization, NzetaPol
   4.973      3.054   
   1.000      1.000   
C                     2                    # Species label, number of l-shells
 n=2   0   2                         # n, l, Nzeta 
   4.633      3.432   
   1.000      1.000   
 n=2   1   2 P   1                   # n, l, Nzeta, Polarization, NzetaPol
   5.659      3.653   
   1.000      1.000   
%endblock PAO.Basis

prinput: ----------------------------------------------------------------------

coor:   Atomic-coordinates input format  =     Cartesian coordinates
coor:                                          (in Angstroms)

siesta: Atomic coordinates (Bohr) and species
siesta:      2.23549   1.32088   0.00000  1        1
siesta:      4.56357   2.66443   0.00000  1        2
siesta:     32.50244  21.48363   0.00000  2        3
siesta:     34.83052  22.82718   0.00000  2        4
siesta:     34.83048  17.45108   0.00000  2        5
siesta:     37.15856  18.79463   0.00000  2        6
siesta:     32.50239  13.41853   0.00000  2        7
siesta:     34.83046  14.76208   0.00000  2        8
siesta:     30.17428   9.38598   0.00000  2        9
siesta:     32.50237  10.72953   0.00000  2       10
siesta:     27.84618   5.35343   0.00000  2       11
siesta:     30.17426   6.69698   0.00000  2       12
siesta:     27.84630  21.48363   0.00000  2       13
siesta:     30.17438  22.82718   0.00000  2       14
siesta:      6.89163   1.32088   0.00000  2       15
siesta:      9.21971   2.66443   0.00000  2       16
siesta:     11.54777   1.32088   0.00000  2       17
siesta:     13.87585   2.66443   0.00000  2       18
siesta:     16.20391   1.32088   0.00000  2       19
siesta:     18.53199   2.66443   0.00000  2       20
siesta:     20.86194   1.32088   0.00000  2       21
siesta:     23.19002   2.66443   0.00000  2       22
siesta:     25.51808   1.32088   0.00000  2       23
siesta:     27.84616   2.66443   0.00000  2       24
siesta:      4.56359   5.35343   0.00000  2       25
siesta:      6.89167   6.69698   0.00000  2       26
siesta:      9.21973   5.35343   0.00000  2       27
siesta:     11.54781   6.69698   0.00000  2       28
siesta:     13.87587   5.35343   0.00000  2       29
siesta:     16.20395   6.69698   0.00000  2       30
siesta:     18.53390   5.35343   0.00000  2       31
siesta:     20.86198   6.69698   0.00000  2       32
siesta:     23.19004   5.35343   0.00000  2       33
siesta:     25.51812   6.69698   0.00000  2       34
siesta:      6.89169   9.38598   0.00000  2       35
siesta:      9.21977  10.72953   0.00000  2       36
siesta:     11.54783   9.38598   0.00000  2       37
siesta:     13.87591  10.72953   0.00000  2       38
siesta:     16.20397   9.38598   0.00000  2       39
siesta:     18.53205  10.72953   0.00000  2       40
siesta:     20.86200   9.38598   0.00000  2       41
siesta:     23.19008  10.72953   0.00000  2       42
siesta:      9.21979  13.41853   0.00000  2       43
siesta:     11.54787  14.76208   0.00000  2       44
siesta:     13.87593  13.41853   0.00000  2       45
siesta:     16.20401  14.76208   0.00000  2       46
siesta:     18.53396  13.41853   0.00000  2       47
siesta:     20.86204  14.76208   0.00000  2       48
siesta:     11.54789  17.45108   0.00000  2       49
siesta:     13.87597  18.79463   0.00000  2       50
siesta:     16.20403  17.45108   0.00000  2       51
siesta:     18.53211  18.79463   0.00000  2       52
siesta:     13.87599  21.48363   0.00000  2       53
siesta:     16.20407  22.82718   0.00000  2       54
siesta:     18.53402  21.48363   0.00000  2       55
siesta:     20.86210  22.82718   0.00000  2       56
siesta:     25.51814   9.38598   0.00000  2       57
siesta:     27.84622  10.72953   0.00000  2       58
siesta:     23.19010  13.41853   0.00000  2       59
siesta:     25.51818  14.76208   0.00000  2       60
siesta:     20.86206  17.45108   0.00000  2       61
siesta:     23.19014  18.79463   0.00000  2       62
siesta:     27.84624  13.41853   0.00000  2       63
siesta:     30.17432  14.76208   0.00000  2       64
siesta:     25.51820  17.45108   0.00000  2       65
siesta:     27.84628  18.79463   0.00000  2       66
siesta:     23.19016  21.48363   0.00000  2       67
siesta:     25.51824  22.82718   0.00000  2       68
siesta:     30.17434  17.45108   0.00000  2       69
siesta:     32.50243  18.79463   0.00000  2       70
siesta:     37.16048  21.48363   0.00000  2       71
siesta:     39.48855  22.82718   0.00000  2       72

siesta: System type = slab      

initatomlists: Number of atoms, orbitals, and projectors:     72   936  1152

siesta: ******************** Simulation parameters ****************************
siesta:
siesta: The following are some of the parameters of the simulation.
siesta: A complete list of the parameters used, including default values,
siesta: can be found in file out.fdf
siesta:
redata: Non-Collinear-spin run           =     F
redata: SpinPolarized (Up/Down) run      =     F
redata: Number of spin components        =     1
redata: Long output                      =     F
redata: Number of Atomic Species         =        2
redata: Charge density info will appear in .RHO file
redata: Write Mulliken Pop.              =     NO
redata: Mesh Cutoff                      =   200.0000  Ry
redata: Net charge of the system         =     0.0000 |e|
redata: Max. number of SCF Iter          =      500
redata: SCF convergence failure will abort job
redata: Performing Pulay mixing using    =    10 iterations
redata: Mix DM in first SCF step ?       =     F
redata: Write Pulay info on disk?        =     F
redata: Discard 1st Pulay DM after  kick =     F
redata: New DM Mixing Weight             =     0.0500
redata: New DM Occupancy tolerance       = 0.000000000001
redata: No kicks to SCF
redata: DM Mixing Weight for Kicks       =     0.5000
redata: DM Tolerance for SCF             =     0.000100
redata: Require Energy convergence for SCF =     F
redata: DM Energy tolerance for SCF      =     0.000100 eV
redata: Require Harris convergence for SCF =     F
redata: DM Harris energy tolerance for SCF =     0.000100 eV
redata: Using Saved Data (generic)   =     F
redata: Use continuation files for DM    =     T
redata: Neglect nonoverlap interactions  =     F
redata: Method of Calculation            =     Diagonalization
redata: Divide and Conquer               =     T
redata: Electronic Temperature           =     0.0019  Ry
redata: Fix the spin of the system       =     F
redata: Dynamics option                  =     Verlet MD run
redata: Initial MD time step             =        1
redata:   Final MD time step             =        1
redata: Length of MD time step           =     1.0000  fs
redata: Initial Temperature of MD run    =     0.0000  K
redata: Perform a MD quench              =     F
redata: ***********************************************************************
Total number of electrons:   290.000000
Total ionic charge:   290.000000

* ProcessorY, Blocksize:    2  24

k-point displ. along   1 input, could be:     0.00    0.50
k-point displ. along   2 input, could be:     0.00    0.50
 Kpoints in:          364 . Kpoints trimmed:          352

siesta: k-grid: Number of k-points =   352
siesta: k-grid: Cutoff (effective) =     5.000 Ang
siesta: k-grid: Supercell and displacements
siesta: k-grid:   26   0   0      0.000
siesta: k-grid:    0  26   0      0.000
siesta: k-grid:    0   0   1      0.000
Naive supercell factors:     2    2    2

superc: Internal auxiliary supercell:     2 x     2 x     2  =       8
superc: Number of atoms, orbitals, and projectors:    576   7488   9216

* Maximum dynamic memory allocated =     6 MB

siesta:                 ==============================
                            Begin MD step =      1
                        ==============================

superc: Internal auxiliary supercell:     2 x     2 x     2  =       8
superc: Number of atoms, orbitals, and projectors:    576   7488   9216

outcell: Unit cell vectors (Ang):
       14.785000    0.000000    0.000000
        7.392500   12.804185    0.000000
        0.000000    0.000000   10.000000

outcell: Cell vector modules (Ang)   :   14.785000   14.785000   10.000000
outcell: Cell angles (23,13,12) (deg):     90.0000     90.0000     60.0000
outcell: Cell volume (Ang**3)        :   1893.0988
New_DM. Step:     1
Initializing Density Matrix...

iodm: Reading Density Matrix from files
 Read DM has different structure. Fixing...

InitMesh: MESH =   120 x   120 x    90 =     1296000
InitMesh: Mesh cutoff (required, used) =   200.000   223.865 Ry

* Maximum dynamic memory allocated =   193 MB

stepf: Fermi-Dirac step function

siesta: Program's energy decomposition (eV):
siesta: Ebs     =     -4458.765210
siesta: Eions   =     18724.504759
siesta: Ena     =      3995.679296
siesta: Ekin    =      7967.956311
siesta: Enl     =      -834.743626
siesta: DEna    =      -286.011331
siesta: DUscf   =       106.704706
siesta: DUext   =         0.000000
siesta: Exc     =     -4089.763491
siesta: eta*DQ  =         0.000000
siesta: Emadel  =         0.000000
siesta: Emeta   =         0.000000
siesta: Emolmec =         0.000000
siesta: Ekinion =         0.000000
siesta: Eharris =    -12432.199559
siesta: Etot    =    -11864.682893
siesta: FreeEng =    -11864.682893

siesta: iscf   Eharris(eV)      E_KS(eV)   FreeEng(eV)   dDmax  Ef(eV)
siesta:    1   -12432.1996   -11864.6829   -11864.6829  6.7034 -4.7044
timer: Routine,Calls,Time,% = IterSCF        1    6658.952  99.82
elaps: Routine,Calls,Wall,% = IterSCF        1     833.362  99.82
siesta:    2   -29757.1997    -7120.3456    -7120.3652  7.0328-39.8803
siesta:    3   -14679.9756   -11315.1742   -11315.1752  2.9260 -7.9566
siesta:    4   -12595.0137   -11632.1118   -11632.1682  2.1414 -2.3496
siesta:    5   -12041.6055   -11716.5431   -11716.5879  1.6360 -3.7475
siesta:    6   -11948.2734   -11754.8569   -11754.8749  1.2513 -3.9444
siesta:    7   -11936.4565   -11781.2900   -11781.3136  1.1379 -3.8559
siesta:    8   -11933.0142   -11795.0124   -11795.0338  1.0688 -3.8093
siesta:    9   -11930.3091   -11810.4561   -11810.4731  0.9806 -3.7957
siesta:   10   -11923.4647   -11881.4875   -11881.5022  0.5087 -3.9026
siesta:   11   -11923.9314   -12028.9919   -12029.0097  0.6816 -4.3204
siesta:   12   -11920.8965   -11950.2856   -11950.2943  0.1923 -3.9259
siesta:   13   -11920.9602   -11935.9391   -11935.9579  0.1481 -4.2317
siesta:   14   -11921.0081   -11922.9967   -11923.0054  0.0703 -4.0943
siesta:   15   -11920.7648   -11923.4912   -11923.5051  0.0764 -4.0366
siesta:   16   -11920.6552   -11921.2451   -11921.2624  0.0565 -4.0412
siesta:   17   -11920.6416   -11920.1226   -11920.1407  0.0466 -4.0309
siesta:   18   -11920.6371   -11920.0640   -11920.0822  0.0195 -4.0532
siesta:   19   -11920.6278   -11919.8942   -11919.9112  0.0091 -4.0445
siesta:   20   -11920.6279   -11919.9889   -11920.0061  0.0021 -4.0550
siesta:   21   -11920.6274   -11920.1504   -11920.1673  0.0018 -4.0553
siesta:   22   -11920.6275   -11920.2495   -11920.2663  0.0025 -4.0567
siesta:   23   -11920.6272   -11920.5148   -11920.5316  0.0007 -4.0528
siesta:   24   -11920.6271   -11920.5726   -11920.5895  0.0005 -4.0522
siesta:   25   -11920.6271   -11920.5792   -11920.5961  0.0004 -4.0525
siesta:   26   -11920.6271   -11920.5919   -11920.6088  0.0004 -4.0525
siesta:   27   -11920.6271   -11920.6012   -11920.6182  0.0003 -4.0523
siesta:   28   -11920.6271   -11920.6073   -11920.6242  0.0003 -4.0522
siesta:   29   -11920.6271   -11920.6287   -11920.6456  0.0002 -4.0522
siesta:   30   -11920.6271   -11920.6436   -11920.6606  0.0002 -4.0521
siesta:   31   -11920.6271   -11920.6447   -11920.6616  0.0001 -4.0519
siesta:   32   -11920.6271   -11920.6470   -11920.6639  0.0001 -4.0519
siesta:   33   -11920.6271   -11920.6494   -11920.6663  0.0001 -4.0520

siesta: E_KS(eV) =           -11920.6341

siesta: E_KS - E_eggbox =    -11920.6341

siesta: Atomic forces (eV/Ang):
----------------------------------------
   Tot    0.211993   -0.288511    0.000000
----------------------------------------
   Max    1.051062
   Res    0.242778    sqrt( Sum f_i^2 / 3N )
----------------------------------------
   Max    1.051062    constrained

Stress-tensor-Voigt (kbar):      -29.86      -28.64        0.04       -0.98        0.00        0.00
(Free)E + p*V (eV/cell)   -11897.6259
Target enthalpy (eV/cell)   -11920.6511

siesta: Stress tensor (static) (eV/Ang**3):
        -0.018635   -0.000612    0.000000
        -0.000612   -0.017877    0.000000
         0.000000    0.000000    0.000024

siesta: Pressure (static):         19.48700997  kBar

siesta: Stress tensor (total) (eV/Ang**3):
        -0.018635   -0.000612    0.000000
        -0.000612   -0.017877    0.000000
         0.000000    0.000000    0.000024

siesta: Pressure (total):         19.48700997  kBar

siesta: Temp_ion =       0.000 K

* Maximum dynamic memory allocated =   209 MB

siesta: Program's energy decomposition (eV):
siesta: Ebs     =     -3990.106491
siesta: Eions   =     18724.504759
siesta: Ena     =      3995.679296
siesta: Ekin    =      7999.356477
siesta: Enl     =      -851.727978
siesta: DEna    =      -278.048920
siesta: DUscf   =        24.740862
siesta: DUext   =         0.000000
siesta: Exc     =     -4086.129101
siesta: eta*DQ  =         0.000000
siesta: Emadel  =         0.000000
siesta: Emeta   =         0.000000
siesta: Emolmec =         0.000000
siesta: Ekinion =         0.000000
siesta: Eharris =    -11920.627099
siesta: Etot    =    -11920.634122
siesta: FreeEng =    -11920.651056

siesta: Final energy (eV):
siesta:  Band Struct. =   -3990.106491
siesta:       Kinetic =    7999.356477
siesta:       Hartree =   23492.499021
siesta:    Ext. field =       0.000000
siesta:   Exch.-corr. =   -4086.129101
siesta:  Ion-electron =  -54376.460018
siesta:       Ion-ion =   15050.099499
siesta:       Ekinion =       0.000000
siesta:         Total =  -11920.634122

siesta: Atomic forces (eV/Ang):
siesta:      1   -1.048639   -0.631320    0.000000
siesta:      2    1.051062    0.624813    0.000000
siesta:      3    0.049038    0.040316    0.000000
siesta:      4   -0.114516    0.162800    0.000000
siesta:      5    0.066307    0.002073    0.000000
siesta:      6    0.073900   -0.204039    0.000000
siesta:      7   -0.092308    0.095652    0.000000
siesta:      8    0.044491   -0.010232    0.000000
siesta:      9    0.277058   -0.200959    0.000000
siesta:     10    0.090649   -0.033784    0.000000
siesta:     11   -0.282096   -0.762402    0.000000
siesta:     12    0.809753   -0.129388    0.000000
siesta:     13    0.049241   -0.145945    0.000000
siesta:     14    0.005024    0.053136    0.000000
siesta:     15   -0.766098   -0.376132    0.000000
siesta:     16   -0.586541    0.144898    0.000000
siesta:     17   -0.049102   -0.392181    0.000000
siesta:     18   -0.041623    0.184949    0.000000
siesta:     19    0.063441   -0.092599    0.000000
siesta:     20   -0.011928    0.055748    0.000000
siesta:     21    0.011052   -0.215264    0.000000
siesta:     22    0.053872    0.357160    0.000000
siesta:     23    0.594879   -0.178089    0.000000
siesta:     24    0.779739    0.347273    0.000000
siesta:     25   -0.692481   -0.496597    0.000000
siesta:     26   -0.165414   -0.578088    0.000000
siesta:     27    0.407256    0.221724    0.000000
siesta:     28   -0.352720   -0.200393    0.000000
siesta:     29    0.161639   -0.154570    0.000000
siesta:     30   -0.010587   -0.053117    0.000000
siesta:     31   -0.042849   -0.031391    0.000000
siesta:     32   -0.045746    0.141480    0.000000
siesta:     33   -0.000306   -0.096215    0.000000
siesta:     34    0.028337   -0.325931    0.000000
siesta:     35   -0.348942    0.123636    0.000000
siesta:     36    0.139760   -0.125991    0.000000
siesta:     37   -0.044009    0.191922    0.000000
siesta:     38   -0.060047   -0.009160    0.000000
siesta:     39    0.079925    0.031531    0.000000
siesta:     40   -0.026112   -0.044194    0.000000
siesta:     41   -0.096178   -0.139719    0.000000
siesta:     42    0.137178   -0.098425    0.000000
siesta:     43   -0.036200    0.070363    0.000000
siesta:     44    0.026690   -0.071003    0.000000
siesta:     45   -0.019115   -0.003459    0.000000
siesta:     46    0.129116   -0.113313    0.000000
siesta:     47   -0.189619    0.003277    0.000000
siesta:     48   -0.018613    0.175119    0.000000
siesta:     49   -0.149247    0.122014    0.000000
siesta:     50    0.338729   -0.128024    0.000000
siesta:     51   -0.069830    0.023645    0.000000
siesta:     52   -0.229055    0.182946    0.000000
siesta:     53    0.191563    0.569324    0.000000
siesta:     54    0.723932    0.498189    0.000000
siesta:     55   -0.830777    0.125052    0.000000
siesta:     56    0.279805    0.771643    0.000000
siesta:     57   -0.096620    0.096493    0.000000
siesta:     58   -0.043119    0.145364    0.000000
siesta:     59    0.119075    0.054543    0.000000
siesta:     60   -0.114318   -0.063340    0.000000
siesta:     61    0.018301   -0.145044    0.000000
siesta:     62    0.097705   -0.106996    0.000000
siesta:     63    0.022585   -0.183750    0.000000
siesta:     64    0.154636   -0.004282    0.000000
siesta:     65   -0.135773    0.089546    0.000000
siesta:     66    0.071233    0.137841    0.000000
siesta:     67   -0.023885    0.321218    0.000000
siesta:     68    0.008293    0.104777    0.000000
siesta:     69    0.072266    0.029015    0.000000
siesta:     70   -0.072603   -0.040441    0.000000
siesta:     71    0.317290    0.202156    0.000000
siesta:     72   -0.425811   -0.204367    0.000000
siesta: ----------------------------------------
siesta:    Tot    0.211993   -0.288511    0.000000

siesta: Stress tensor (static) (eV/Ang**3):
siesta:    -0.018635   -0.000612    0.000000
siesta:    -0.000612   -0.017877    0.000000
siesta:     0.000000    0.000000    0.000024

siesta: Cell volume =       1893.098801 Ang**3

siesta: Pressure (static):
siesta:                Solid            Molecule  Units
siesta:           0.00013247          0.00003784  Ry/Bohr**3
siesta:           0.01216270          0.00347404  eV/Ang**3
siesta:          19.48700997          5.56607892  kBar
(Free)E+ p_basis*V_orbitals  =      -11890.199364
(Free)Eharris+ p_basis*V_orbitals  =      -11890.177051

siesta: Electric dipole (a.u.)  =    0.000000    0.000000    0.000000
siesta: Electric dipole (Debye) =    0.000000    0.000000    0.000000

* Maximum dynamic memory allocated : Node    0 =   208 MB
* Maximum dynamic memory allocated : Node    1 =    75 MB
* Maximum dynamic memory allocated : Node    2 =    78 MB
* Maximum dynamic memory allocated : Node    3 =   197 MB
* Maximum dynamic memory allocated : Node    4 =   209 MB
* Maximum dynamic memory allocated : Node    5 =    75 MB
* Maximum dynamic memory allocated : Node    6 =    78 MB
* Maximum dynamic memory allocated : Node    7 =   192 MB

* Maximum memory occured during matrixMtoO                    

timer: CPU execution times:
timer:  Routine       Calls   Time/call    Tot.time        %
timer:  siesta            1  215781.373  215781.373   100.00
timer:  Setup             1       3.077       3.077     0.00
timer:  bands             1       0.010       0.010     0.00
timer:  writewave         1       0.017       0.017     0.00
timer:  KSV_init          1       0.000       0.000     0.00
timer:  IterMD            1  215770.144  215770.144    99.99
timer:  hsparse           1       0.255       0.255     0.00
timer:  overlap           1       4.646       4.646     0.00
timer:  IterSCF          33    6533.224  215596.393    99.91
timer:  kinefsm           2       2.437       4.874     0.00
timer:  nlefsm            2      19.288      38.576     0.02
timer:  DHSCF            34      92.347    3139.803     1.46
timer:  DHSCF1            1       0.770       0.770     0.00
timer:  DHSCF2            1      33.970      33.970     0.02
timer:  REORD           274       0.010       2.781     0.00
timer:  POISON           35       2.245      78.580     0.04
timer:  DHSCF3           34      90.310    3070.538     1.42
timer:  rhoofd           34      17.253     586.602     0.27
timer:  cellXC           34       3.532     120.080     0.06
timer:  vmat             34      46.321    1574.930     0.73
timer:  MolMec            2       0.000       0.001     0.00
timer:  diagon           33    6439.577  212506.041    98.48
timer:  c-eigval      11616       6.676   77549.096    35.94
timer:  c-buildHS     11616       0.119    1387.787     0.64
timer:  cdiag         23232       6.840  158898.734    73.64
timer:  cdiag1        23232       0.426    9904.480     4.59
timer:  cdiag2        23232       1.908   44334.423    20.55
timer:  cdiag3        23232       3.945   91654.061    42.48
timer:  cdiag4        23232       0.204    4734.941     2.19
timer:  c-eigvec      11616       7.196   83591.113    38.74
timer:  c-buildD      11616       4.414   51269.446    23.76
timer:  DHSCF4            1      32.742      32.742     0.02
timer:  dfscf             1      30.863      30.863     0.01
timer:  overfsm           1       0.377       0.377     0.00
timer:  optical           1       7.131       7.131     0.00
  

elaps: ELAPSED times:
elaps:  Routine       Calls   Time/call    Tot.time        %
elaps:  siesta            1   27003.179   27003.179   100.00
elaps:  Setup             1       0.384       0.384     0.00
elaps:  bands             1       0.001       0.001     0.00
elaps:  writewave         1       0.002       0.002     0.00
elaps:  KSV_init          1       0.000       0.000     0.00
elaps:  IterMD            1   27001.774   27001.774    99.99
elaps:  hsparse           1       0.031       0.031     0.00
elaps:  overlap           1       0.969       0.969     0.00
elaps:  IterSCF          33     817.577   26980.040    99.91
elaps:  kinefsm           2       0.497       0.993     0.00
elaps:  nlefsm            2       2.245       4.490     0.02
elaps:  DHSCF            34      11.651     396.130     1.47
elaps:  DHSCF1            1       0.098       0.098     0.00
elaps:  DHSCF2            1       4.251       4.251     0.02
elaps:  REORD           274       0.001       0.372     0.00
elaps:  POISON           35       0.281       9.821     0.04
elaps:  DHSCF3           34      11.298     384.139     1.42
elaps:  rhoofd           34       3.698     125.730     0.47
elaps:  cellXC           34       0.441      14.991     0.06
elaps:  vmat             34       5.795     197.026     0.73
elaps:  MolMec            2       0.000       0.000     0.00
elaps:  diagon           33     805.873   26593.824    98.48
elaps:  c-eigval      11616       0.835    9702.561    35.93
elaps:  c-buildHS     11616       0.016     188.214     0.70
elaps:  cdiag         23232       0.847   19682.197    72.89
elaps:  cdiag1        23232       0.053    1228.198     4.55
elaps:  cdiag2        23232       0.239    5547.551    20.54
elaps:  cdiag3        23232       0.494   11482.643    42.52
elaps:  cdiag4        23232       0.026     603.986     2.24
elaps:  c-eigvec      11616       0.889   10327.267    38.24
elaps:  c-buildD      11616       0.564    6550.121    24.26
elaps:  DHSCF4            1       7.400       7.400     0.03
elaps:  dfscf             1       7.018       7.018     0.03
elaps:  overfsm           1       0.048       0.048     0.00
elaps:  optical           1       0.000       0.000     0.00
  
>> End of run:  27-NOV-2015   0:50:07
