Siesta Version:                                        siesta-3.2-pl-3
Architecture  : x86_64-unknown-linux-gnu--unknown
Compiler flags: mpiifort -g -O2 -fPIC -xSSE4.1 -fp-model source -shared-intel 
PARALLEL version

* Running on    8 nodes in parallel
>> Start of run:  28-NOV-2015  18:39:11

                           ***********************       
                           *  WELCOME TO SIESTA  *       
                           ***********************       

reinit: Reading from standard input
************************** Dump of input data file ****************************
#(1) General system descriptors
SystemName            GRP_doping    # Descriptive name of the system
SystemLabel           GRP_doping    # Short name for naming files
%include STRUCT.fdf
%include KPT.fdf
%include BASIS.fdf
#%include TS.fdf # for transiesta calculation
#(4) DFT, Grid, SCF
XC.functional         GGA           # LDA or GGA (default = LDA)
XC.authors            PBE           # CA (Ceperley-Aldr) = PZ
                                    #    (Perdew-Zunger) - LDA - Default
                                    # PW92 (Perdew-Wang-92) - LDA
                                    # PBE (Perdew-Burke-Ernzerhof) - GGA
MeshCutoff            200.000000    Ry      # Default: 50.0 Ry ~ 0.444 Bohr
                                    #         100.0 Ry ~ 0.314 Bohr
MaxSCFIterations      500           # Default: 50
DM.MixingWeight       0.05          # Default: 0.25
DM.NumberPulay        10            # Default: 0
DM.PulayOnFile        F             # SystemLabel.P1, SystemLabel.P2
DM.Tolerance          1.d-4         # Default: 1.d-4
DM.UseSaveDM          .true.        # because of the bug
SCFMustConverge       .true.
NeglNonOverlapInt     F             # Default: F
#(5) Eigenvalue problem: order-N or diagonalization
SolutionMethod        Diagon        # or Transiesta
ElectronicTemperature 300.0 K       # Default: 300.0 K
#(6) Molecular dynamics and relaxations
#MD.TypeOfRun          CG            # Type of dynamics:
#MD.VariableCell       F
#MD.NumCGsteps         0           # 0 for single-point / 100 for gopt
#MD.MaxCGDispl         0.2 Bohr      # Default: 0.2 Bohr
#MD.MaxForceTol        0.02 eV/Ang   # Default: 0.04 eV/Ang
#MD.MaxStressTol       1.0 GPa       # Default: 1.0 GPa
# Geometry Constraints
#%block GeometryConstraints
#	position from 1 to 44
#%endblock GeometryConstraints
************************** End of input data file *****************************

reinit: -----------------------------------------------------------------------
reinit: System Name: GRP_doping
reinit: -----------------------------------------------------------------------
reinit: System Label: GRP_doping                                                  
reinit: -----------------------------------------------------------------------

initatom: Reading input for the pseudopotentials and atomic orbitals ----------
 Species number:            1  Label: C Atomic number:           6
 Species number:            2  Label: B Atomic number:           5
Ground state valence configuration:   2s02  2p02
Reading pseudopotential information in formatted form from C.psf

Valence configuration for pseudopotential generation:
2s( 2.00) rc: 1.54
2p( 2.00) rc: 1.54
3d( 0.00) rc: 1.54
4f( 0.00) rc: 1.54
Ground state valence configuration:   2s02  2p01
Reading pseudopotential information in formatted form from B.psf

Valence configuration for pseudopotential generation:
2s( 2.00) rc: 1.74
2p( 1.00) rc: 1.74
3d( 0.00) rc: 1.74
4f( 0.00) rc: 1.74
For C, standard SIESTA heuristics set lmxkb to 3
 (one more than the basis l, including polarization orbitals).
Use PS.lmax or PS.KBprojectors blocks to override.
For B, standard SIESTA heuristics set lmxkb to 3
 (one more than the basis l, including polarization orbitals).
Use PS.lmax or PS.KBprojectors blocks to override.

<basis_specs>
===============================================================================
C                    Z=   6    Mass=  12.010        Charge= 0.17977+309
Lmxo=1 Lmxkb= 3    BasisType=split      Semic=F
L=0  Nsemic=0  Cnfigmx=2
          n=1  nzeta=2  polorb=0
            splnorm:   0.15000    
               vcte:    0.0000    
               rinn:    0.0000    
                rcs:    0.0000      0.0000    
            lambdas:    1.0000      1.0000    
L=1  Nsemic=0  Cnfigmx=2
          n=1  nzeta=2  polorb=1
            splnorm:   0.15000    
               vcte:    0.0000    
               rinn:    0.0000    
                rcs:    0.0000      0.0000    
            lambdas:    1.0000      1.0000    
-------------------------------------------------------------------------------
L=0  Nkbl=1  erefs: 0.17977+309
L=1  Nkbl=1  erefs: 0.17977+309
L=2  Nkbl=1  erefs: 0.17977+309
L=3  Nkbl=1  erefs: 0.17977+309
===============================================================================
</basis_specs>

atom: Called for C                     (Z =   6)

read_vps: Pseudopotential generation method:
read_vps: ATM3      Troullier-Martins                       
Total valence charge:    4.00000

read_vps: Pseudopotential includes a core correction:
read_vps: Pseudo-core for xc-correction

xc_check: Exchange-correlation functional:
xc_check: GGA Perdew, Burke & Ernzerhof 1996
V l=0 = -2*Zval/r beyond r=  1.5227
V l=1 = -2*Zval/r beyond r=  1.5227
V l=2 = -2*Zval/r beyond r=  1.5227
V l=3 = -2*Zval/r beyond r=  1.5038
All V_l potentials equal beyond r=  1.5227
This should be close to max(r_c) in ps generation
All pots = -2*Zval/r beyond r=  1.5227

VLOCAL1: 99.0% of the norm of Vloc inside     18.722 Ry
VLOCAL1: 99.9% of the norm of Vloc inside     42.668 Ry
atom: Maximum radius for 4*pi*r*r*local-pseudopot. charge    1.83678
atom: Maximum radius for r*vlocal+2*Zval:    1.58088
GHOST: No ghost state for L =  0
GHOST: No ghost state for L =  1
GHOST: No ghost state for L =  2
GHOST: No ghost state for L =  3

KBgen: Kleinman-Bylander projectors: 
   l= 0   rc=  1.704034   el= -1.009801   Ekb=  5.335044   kbcos=  0.316824
   l= 1   rc=  1.704034   el= -0.388707   Ekb= -3.785862   kbcos= -0.366464
   l= 2   rc=  1.791422   el=  0.001971   Ekb= -0.970471   kbcos= -0.009212
   l= 3   rc=  1.859892   el=  0.003065   Ekb= -0.399525   kbcos= -0.001223

KBgen: Total number of  Kleinman-Bylander projectors:   16
atom: -------------------------------------------------------------------------

atom: SANKEY-TYPE ORBITALS:
atom: Selected multiple-zeta basis: split     

SPLIT: Orbitals with angular momentum L= 0

SPLIT: Basis orbitals for state 2s

SPLIT: PAO cut-off radius determined from an
SPLIT: energy shift=  0.007350 Ry

   izeta = 1
                 lambda =    1.000000
                     rc =    4.632753
                 energy =   -1.002270
                kinetic =    0.855760
    potential(screened) =   -1.858031
       potential(ionic) =   -5.417575

   izeta = 2
                 rmatch =    3.431921
              splitnorm =    0.150000
                 energy =   -0.867111
                kinetic =    1.300804
    potential(screened) =   -2.167915
       potential(ionic) =   -5.962684

SPLIT: Orbitals with angular momentum L= 1

SPLIT: Basis orbitals for state 2p

SPLIT: PAO cut-off radius determined from an
SPLIT: energy shift=  0.007350 Ry

   izeta = 1
                 lambda =    1.000000
                     rc =    5.658549
                 energy =   -0.381140
                kinetic =    2.399701
    potential(screened) =   -2.780841
       potential(ionic) =   -6.206085

   izeta = 2
                 rmatch =    3.653288
              splitnorm =    0.150000
                 energy =   -0.249149
                kinetic =    3.542762
    potential(screened) =   -3.791911
       potential(ionic) =   -7.581078

POLgen: Perturbative polarization orbital with L=  2

POLgen: Polarization orbital for state 2p

   izeta = 1
                     rc =    5.658549
                 energy =    1.109913
                kinetic =    2.304789
    potential(screened) =   -1.194876
       potential(ionic) =   -4.013592
atom: Total number of Sankey-type orbitals: 13

atm_pop: Valence configuration (for local Pseudopot. screening):
 2s( 2.00)                                                            
 2p( 2.00)                                                            
Vna: chval, zval:    4.00000   4.00000

Vna:  Cut-off radius for the neutral-atom potential:   5.658549
comcore: Pseudo-core radius Rcore=  1.791422

atom: _________________________________________________________________________

<basis_specs>
===============================================================================
B                    Z=   5    Mass=  10.810        Charge= 0.17977+309
Lmxo=1 Lmxkb= 3    BasisType=split      Semic=F
L=0  Nsemic=0  Cnfigmx=2
          n=1  nzeta=2  polorb=0
            splnorm:   0.15000    
               vcte:    0.0000    
               rinn:    0.0000    
                rcs:    0.0000      0.0000    
            lambdas:    1.0000      1.0000    
L=1  Nsemic=0  Cnfigmx=2
          n=1  nzeta=2  polorb=1
            splnorm:   0.15000    
               vcte:    0.0000    
               rinn:    0.0000    
                rcs:    0.0000      0.0000    
            lambdas:    1.0000      1.0000    
-------------------------------------------------------------------------------
L=0  Nkbl=1  erefs: 0.17977+309
L=1  Nkbl=1  erefs: 0.17977+309
L=2  Nkbl=1  erefs: 0.17977+309
L=3  Nkbl=1  erefs: 0.17977+309
===============================================================================
</basis_specs>

atom: Called for B                     (Z =   5)

read_vps: Pseudopotential generation method:
read_vps: ATM3      Troullier-Martins                       
Total valence charge:    3.00000

read_vps: Pseudopotential includes a core correction:
read_vps: Pseudo-core for xc-correction

xc_check: Exchange-correlation functional:
xc_check: GGA Perdew, Burke & Ernzerhof 1996
V l=0 = -2*Zval/r beyond r=  1.7165
V l=1 = -2*Zval/r beyond r=  1.7165
V l=2 = -2*Zval/r beyond r=  1.7165
V l=3 = -2*Zval/r beyond r=  1.6951
All V_l potentials equal beyond r=  1.7165
This should be close to max(r_c) in ps generation
All pots = -2*Zval/r beyond r=  1.7165

VLOCAL1: 99.0% of the norm of Vloc inside     14.733 Ry
VLOCAL1: 99.9% of the norm of Vloc inside     33.577 Ry
atom: Maximum radius for 4*pi*r*r*local-pseudopot. charge    2.04484
atom: Maximum radius for r*vlocal+2*Zval:    1.75994
GHOST: No ghost state for L =  0
GHOST: No ghost state for L =  1
GHOST: No ghost state for L =  2
GHOST: No ghost state for L =  3

KBgen: Kleinman-Bylander projectors: 
   l= 0   rc=  1.897051   el= -0.693730   Ekb=  4.595746   kbcos=  0.286105
   l= 1   rc=  1.920920   el= -0.265236   Ekb= -2.350715   kbcos= -0.315747
   l= 2   rc=  2.044840   el=  0.002055   Ekb= -0.690767   kbcos= -0.013822
   l= 3   rc=  2.149707   el=  0.003188   Ekb= -0.315358   kbcos= -0.002055

KBgen: Total number of  Kleinman-Bylander projectors:   16
atom: -------------------------------------------------------------------------

atom: SANKEY-TYPE ORBITALS:
atom: Selected multiple-zeta basis: split     

SPLIT: Orbitals with angular momentum L= 0

SPLIT: Basis orbitals for state 2s

SPLIT: PAO cut-off radius determined from an
SPLIT: energy shift=  0.007350 Ry

   izeta = 1
                 lambda =    1.000000
                     rc =    5.422032
                 energy =   -0.686029
                kinetic =    0.576707
    potential(screened) =   -1.262736
       potential(ionic) =   -3.271094

   izeta = 2
                 rmatch =    4.222573
              splitnorm =    0.150000
                 energy =   -0.602132
                kinetic =    0.858975
    potential(screened) =   -1.461107
       potential(ionic) =   -3.582536

SPLIT: Orbitals with angular momentum L= 1

SPLIT: Basis orbitals for state 2p

SPLIT: PAO cut-off radius determined from an
SPLIT: energy shift=  0.007350 Ry

   izeta = 1
                 lambda =    1.000000
                     rc =    6.790259
                 energy =   -0.258578
                kinetic =    1.481412
    potential(screened) =   -1.739989
       potential(ionic) =   -3.657461

   izeta = 2
                 rmatch =    4.608740
              splitnorm =    0.150000
                 energy =   -0.173757
                kinetic =    2.186690
    potential(screened) =   -2.360447
       potential(ionic) =   -4.464260

POLgen: Perturbative polarization orbital with L=  2

POLgen: Polarization orbital for state 2p

   izeta = 1
                     rc =    6.790259
                 energy =    0.684082
                kinetic =    1.471481
    potential(screened) =   -0.787399
       potential(ionic) =   -2.406985
atom: Total number of Sankey-type orbitals: 13

atm_pop: Valence configuration (for local Pseudopot. screening):
 2s( 2.00)                                                            
 2p( 1.00)                                                            
Vna: chval, zval:    3.00000   3.00000

Vna:  Cut-off radius for the neutral-atom potential:   6.790259
comcore: Pseudo-core radius Rcore=  2.122997

atom: _________________________________________________________________________

prinput: Basis input ----------------------------------------------------------

PAO.BasisType split     

%block ChemicalSpeciesLabel
    1    6 C                       # Species index, atomic number, species label
    2    5 B                       # Species index, atomic number, species label
%endblock ChemicalSpeciesLabel

%block PAO.Basis                 # Define Basis set
C                     2                    # Species label, number of l-shells
 n=2   0   2                         # n, l, Nzeta 
   4.633      3.432   
   1.000      1.000   
 n=2   1   2 P   1                   # n, l, Nzeta, Polarization, NzetaPol
   5.659      3.653   
   1.000      1.000   
B                     2                    # Species label, number of l-shells
 n=2   0   2                         # n, l, Nzeta 
   5.422      4.223   
   1.000      1.000   
 n=2   1   2 P   1                   # n, l, Nzeta, Polarization, NzetaPol
   6.790      4.609   
   1.000      1.000   
%endblock PAO.Basis

prinput: ----------------------------------------------------------------------

coor:   Atomic-coordinates input format  =     Cartesian coordinates
coor:                                          (in Angstroms)

siesta: Atomic coordinates (Bohr) and species
siesta:      2.23554   1.32097   0.00000  1        1
siesta:     32.50328  21.48508   0.00000  1        2
siesta:     34.83141  22.82873   0.00000  1        3
siesta:     34.83116  17.45226   0.00000  1        4
siesta:     32.50291  13.41944   0.00000  1        5
siesta:     34.83104  14.76308   0.00000  1        6
siesta:     30.17465   9.38661   0.00000  1        7
siesta:     32.50278  10.73026   0.00000  1        8
siesta:     27.84639   5.35379   0.00000  1        9
siesta:     30.17453   6.69743   0.00000  1       10
siesta:     27.84714  21.48508   0.00000  1       11
siesta:     30.17527  22.82873   0.00000  1       12
siesta:      6.89168   1.32097   0.00000  1       13
siesta:      9.21981   2.66461   0.00000  1       14
siesta:     13.87595   2.66461   0.00000  1       15
siesta:     16.20396   1.32097   0.00000  1       16
siesta:     18.53210   2.66461   0.00000  1       17
siesta:     23.19013   2.66461   0.00000  1       18
siesta:     25.51813   1.32097   0.00000  1       19
siesta:     27.84627   2.66461   0.00000  1       20
siesta:      4.56380   5.35379   0.00000  1       21
siesta:      6.89193   6.69743   0.00000  1       22
siesta:      9.21994   5.35379   0.00000  1       23
siesta:     11.54807   6.69743   0.00000  1       24
siesta:     13.87608   5.35379   0.00000  1       25
siesta:     16.20421   6.69743   0.00000  1       26
siesta:     18.53411   5.35379   0.00000  1       27
siesta:     20.86224   6.69743   0.00000  1       28
siesta:     23.19025   5.35379   0.00000  1       29
siesta:     25.51838   6.69743   0.00000  1       30
siesta:      9.22019  10.73026   0.00000  1       31
siesta:     11.54820   9.38661   0.00000  1       32
siesta:     13.87633  10.73026   0.00000  1       33
siesta:     18.53247  10.73026   0.00000  1       34
siesta:     20.86237   9.38661   0.00000  1       35
siesta:     23.19050  10.73026   0.00000  1       36
siesta:      9.22031  13.41944   0.00000  1       37
siesta:     11.54845  14.76308   0.00000  1       38
siesta:     13.87645  13.41944   0.00000  1       39
siesta:     16.20459  14.76308   0.00000  1       40
siesta:     18.53448  13.41944   0.00000  1       41
siesta:     20.86262  14.76308   0.00000  1       42
siesta:     13.87670  18.79590   0.00000  1       43
siesta:     16.20471  17.45226   0.00000  1       44
siesta:     18.53284  18.79590   0.00000  1       45
siesta:     13.87683  21.48508   0.00000  1       46
siesta:     16.20496  22.82873   0.00000  1       47
siesta:     18.53486  21.48508   0.00000  1       48
siesta:     20.86299  22.82873   0.00000  1       49
siesta:     27.84664  10.73026   0.00000  1       50
siesta:     23.19063  13.41944   0.00000  1       51
siesta:     25.51876  14.76308   0.00000  1       52
siesta:     23.19088  18.79590   0.00000  1       53
siesta:     27.84677  13.41944   0.00000  1       54
siesta:     30.17490  14.76308   0.00000  1       55
siesta:     25.51888  17.45226   0.00000  1       56
siesta:     27.84702  18.79590   0.00000  1       57
siesta:     23.19100  21.48508   0.00000  1       58
siesta:     25.51913  22.82873   0.00000  1       59
siesta:     30.17503  17.45226   0.00000  1       60
siesta:     32.50316  18.79590   0.00000  1       61
siesta:     37.16131  21.48508   0.00000  1       62
siesta:     39.48945  22.82873   0.00000  1       63
siesta:      4.56367   2.66461   0.00000  2       64
siesta:     37.15930  18.79590   0.00000  2       65
siesta:     11.54782   1.32097   0.00000  2       66
siesta:     20.86199   1.32097   0.00000  2       67
siesta:      6.89205   9.38661   0.00000  2       68
siesta:     16.20434   9.38661   0.00000  2       69
siesta:     11.54857  17.45226   0.00000  2       70
siesta:     25.51851   9.38661   0.00000  2       71
siesta:     20.86274  17.45226   0.00000  2       72

siesta: System type = slab      

initatomlists: Number of atoms, orbitals, and projectors:     72   936  1152

siesta: ******************** Simulation parameters ****************************
siesta:
siesta: The following are some of the parameters of the simulation.
siesta: A complete list of the parameters used, including default values,
siesta: can be found in file out.fdf
siesta:
redata: Non-Collinear-spin run           =     F
redata: SpinPolarized (Up/Down) run      =     F
redata: Number of spin components        =     1
redata: Long output                      =     F
redata: Number of Atomic Species         =        2
redata: Charge density info will appear in .RHO file
redata: Write Mulliken Pop.              =     NO
redata: Mesh Cutoff                      =   200.0000  Ry
redata: Net charge of the system         =     0.0000 |e|
redata: Max. number of SCF Iter          =      500
redata: SCF convergence failure will abort job
redata: Performing Pulay mixing using    =    10 iterations
redata: Mix DM in first SCF step ?       =     F
redata: Write Pulay info on disk?        =     F
redata: Discard 1st Pulay DM after  kick =     F
redata: New DM Mixing Weight             =     0.0500
redata: New DM Occupancy tolerance       = 0.000000000001
redata: No kicks to SCF
redata: DM Mixing Weight for Kicks       =     0.5000
redata: DM Tolerance for SCF             =     0.000100
redata: Require Energy convergence for SCF =     F
redata: DM Energy tolerance for SCF      =     0.000100 eV
redata: Require Harris convergence for SCF =     F
redata: DM Harris energy tolerance for SCF =     0.000100 eV
redata: Using Saved Data (generic)   =     F
redata: Use continuation files for DM    =     T
redata: Neglect nonoverlap interactions  =     F
redata: Method of Calculation            =     Diagonalization
redata: Divide and Conquer               =     T
redata: Electronic Temperature           =     0.0019  Ry
redata: Fix the spin of the system       =     F
redata: Dynamics option                  =     Verlet MD run
redata: Initial MD time step             =        1
redata:   Final MD time step             =        1
redata: Length of MD time step           =     1.0000  fs
redata: Initial Temperature of MD run    =     0.0000  K
redata: Perform a MD quench              =     F
redata: ***********************************************************************
Total number of electrons:   279.000000
Total ionic charge:   279.000000

* ProcessorY, Blocksize:    2  24

k-point displ. along   1 input, could be:     0.00    0.50
k-point displ. along   2 input, could be:     0.00    0.50
 Kpoints in:          364 . Kpoints trimmed:          352

siesta: k-grid: Number of k-points =   352
siesta: k-grid: Cutoff (effective) =     5.000 Ang
siesta: k-grid: Supercell and displacements
siesta: k-grid:   26   0   0      0.000
siesta: k-grid:    0  26   0      0.000
siesta: k-grid:    0   0   1      0.000
Naive supercell factors:     2    2    2

superc: Internal auxiliary supercell:     2 x     2 x     2  =       8
superc: Number of atoms, orbitals, and projectors:    576   7488   9216

* Maximum dynamic memory allocated =     6 MB

siesta:                 ==============================
                            Begin MD step =      1
                        ==============================

superc: Internal auxiliary supercell:     2 x     2 x     2  =       8
superc: Number of atoms, orbitals, and projectors:    576   7488   9216

outcell: Unit cell vectors (Ang):
       14.785000    0.000000    0.000000
        7.393000   12.805052    0.000000
        0.000000    0.000000   10.000000

outcell: Cell vector modules (Ang)   :   14.785000   14.786000   10.000000
outcell: Cell angles (23,13,12) (deg):     90.0000     90.0000     60.0000
outcell: Cell volume (Ang**3)        :   1893.2269
New_DM. Step:     1
Initializing Density Matrix...

InitMesh: MESH =   120 x   120 x    90 =     1296000
InitMesh: Mesh cutoff (required, used) =   200.000   223.865 Ry

* Maximum dynamic memory allocated =   208 MB

stepf: Fermi-Dirac step function

siesta: Program's energy decomposition (eV):
siesta: Ebs     =     -4460.444068
siesta: Eions   =     17250.500670
siesta: Ena     =      3769.798300
siesta: Ekin    =      5903.534022
siesta: Enl     =       294.312909
siesta: DEna    =        -0.000010
siesta: DUscf   =         0.000000
siesta: DUext   =         0.000000
siesta: Exc     =     -3961.819721
siesta: eta*DQ  =         0.000000
siesta: Emadel  =         0.000000
siesta: Emeta   =         0.000000
siesta: Emolmec =         0.000000
siesta: Ekinion =         0.000000
siesta: Eharris =    -11172.456801
siesta: Etot    =    -11244.675171
siesta: FreeEng =    -11244.675171

siesta: iscf   Eharris(eV)      E_KS(eV)   FreeEng(eV)   dDmax  Ef(eV)
siesta:    1   -11172.4568   -11244.6752   -11244.6752  1.8845 -8.1050
timer: Routine,Calls,Time,% = IterSCF        1    6739.388  99.83
elaps: Routine,Calls,Wall,% = IterSCF        1     843.831  99.87
siesta:    2   -11192.0729   -11124.8445   -11124.8749  0.5405 -3.8847
siesta:    3   -11153.4006   -11161.7817   -11161.8106  0.4785 -5.3393
siesta:    4   -11150.6916   -11161.0918   -11161.1160  0.4593 -5.3981
siesta:    5   -11146.1934   -11154.5673   -11154.5969  0.3107 -5.7513
siesta:    6   -11146.1734   -11147.5053   -11147.5258  0.1943 -5.7095
siesta:    7   -11147.2638   -11142.2389   -11142.2621  0.1317 -5.8911
siesta:    8   -11145.8389   -11141.8052   -11141.8370  0.1132 -5.8922
siesta:    9   -11144.6501   -11141.5000   -11141.5338  0.0885 -5.9356
siesta:   10   -11144.2809   -11141.5270   -11141.5612  0.0689 -5.9602
siesta:   11   -11144.1524   -11141.9538   -11141.9859  0.0550 -5.9687
siesta:   12   -11144.1037   -11142.3205   -11142.3532  0.0409 -5.9662
siesta:   13   -11144.0901   -11142.9080   -11142.9412  0.0272 -5.9520
siesta:   14   -11144.0787   -11143.8356   -11143.8700  0.0099 -5.9407
siesta:   15   -11144.0745   -11144.0269   -11144.0609  0.0073 -5.9363
siesta:   16   -11144.0688   -11144.0671   -11144.1010  0.0053 -5.9332
siesta:   17   -11144.0684   -11144.1504   -11144.1842  0.0030 -5.9352
siesta:   18   -11144.0672   -11144.1668   -11144.2006  0.0017 -5.9350
siesta:   19   -11144.0668   -11144.1294   -11144.1634  0.0012 -5.9346
siesta:   20   -11144.0665   -11144.1383   -11144.1722  0.0005 -5.9348
siesta:   21   -11144.0665   -11144.1228   -11144.1568  0.0006 -5.9352
siesta:   22   -11144.0665   -11144.1173   -11144.1512  0.0004 -5.9348
siesta:   23   -11144.0665   -11144.1048   -11144.1388  0.0004 -5.9348
siesta:   24   -11144.0664   -11144.0972   -11144.1311  0.0003 -5.9347
siesta:   25   -11144.0664   -11144.0806   -11144.1145  0.0001 -5.9350
siesta:   26   -11144.0664   -11144.0776   -11144.1116  0.0001 -5.9350
siesta:   27   -11144.0664   -11144.0719   -11144.1059  0.0001 -5.9350

siesta: E_KS(eV) =           -11144.0691

siesta: E_KS - E_eggbox =    -11144.0691

siesta: Atomic forces (eV/Ang):
----------------------------------------
   Tot    0.187390   -0.144702    0.000000
----------------------------------------
   Max    3.541460
   Res    1.263892    sqrt( Sum f_i^2 / 3N )
----------------------------------------
   Max    3.541460    constrained

Stress-tensor-Voigt (kbar):     -119.74     -118.04       -0.25       -0.39        0.00        0.00
(Free)E + p*V (eV/cell)   -11050.3473
Target enthalpy (eV/cell)   -11144.1031

siesta: Stress tensor (static) (eV/Ang**3):
        -0.074737   -0.000246    0.000000
        -0.000246   -0.073671    0.000000
         0.000000    0.000000   -0.000157

siesta: Pressure (static):         79.34339886  kBar

siesta: Stress tensor (total) (eV/Ang**3):
        -0.074737   -0.000246    0.000000
        -0.000246   -0.073671    0.000000
         0.000000    0.000000   -0.000157

siesta: Pressure (total):         79.34339886  kBar

siesta: Temp_ion =       0.000 K

* Maximum dynamic memory allocated =   223 MB

siesta: Program's energy decomposition (eV):
siesta: Ebs     =     -3690.795291
siesta: Eions   =     17250.500670
siesta: Ena     =      3769.798300
siesta: Ekin    =      7406.578607
siesta: Enl     =      -691.336534
siesta: DEna    =      -341.562541
siesta: DUscf   =        36.545209
siesta: DUext   =         0.000000
siesta: Exc     =     -4073.591504
siesta: eta*DQ  =         0.000000
siesta: Emadel  =         0.000000
siesta: Emeta   =         0.000000
siesta: Emolmec =         0.000000
siesta: Ekinion =         0.000000
siesta: Eharris =    -11144.066425
siesta: Etot    =    -11144.069135
siesta: FreeEng =    -11144.103118

siesta: Final energy (eV):
siesta:  Band Struct. =   -3690.795291
siesta:       Kinetic =    7406.578607
siesta:       Hartree =   21696.449458
siesta:    Ext. field =       0.000000
siesta:   Exch.-corr. =   -4073.591504
siesta:  Ion-electron =  -50131.159034
siesta:       Ion-ion =   13957.653338
siesta:       Ekinion =       0.000000
siesta:         Total =  -11144.069135

siesta: Atomic forces (eV/Ang):
siesta:      1   -3.217225   -1.844144    0.000000
siesta:      2   -0.300984   -0.161382    0.000000
siesta:      3    0.877083   -2.903042    0.000000
siesta:      4   -3.493623   -1.868152    0.000000
siesta:      5   -0.451770   -0.417041    0.000000
siesta:      6   -1.053943    1.027800    0.000000
siesta:      7   -0.214617    1.462439    0.000000
siesta:      8   -3.106899    1.665320    0.000000
siesta:      9   -0.608634    0.003808    0.000000
siesta:     10    0.646990   -0.134704    0.000000
siesta:     11   -0.444319   -0.332016    0.000000
siesta:     12    0.409674   -0.672598    0.000000
siesta:     13    3.048799   -1.588297    0.000000
siesta:     14   -2.834152    1.109585    0.000000
siesta:     15    2.864328    1.455840    0.000000
siesta:     16    0.052626    1.522021    0.000000
siesta:     17   -2.747027    1.498530    0.000000
siesta:     18    2.826496    1.622179    0.000000
siesta:     19    0.073130    0.502591    0.000000
siesta:     20    0.454922   -0.921899    0.000000
siesta:     21    0.151299    3.468012    0.000000
siesta:     22   -0.452647   -3.040622    0.000000
siesta:     23   -0.680997   -0.373056    0.000000
siesta:     24   -0.223059   -0.024073    0.000000
siesta:     25    1.199817   -0.476574    0.000000
siesta:     26   -0.074613   -3.187163    0.000000
siesta:     27   -0.942120   -0.426086    0.000000
siesta:     28   -0.118117   -0.029319    0.000000
siesta:     29    0.822255   -0.662445    0.000000
siesta:     30    0.251558   -3.410407    0.000000
siesta:     31    2.644108    1.912923    0.000000
siesta:     32    0.220763    1.123150    0.000000
siesta:     33   -2.756895    1.532722    0.000000
siesta:     34    2.788582    1.518052    0.000000
siesta:     35   -0.190851    1.054477    0.000000
siesta:     36   -2.705603    1.728128    0.000000
siesta:     37    1.642825   -1.063860    0.000000
siesta:     38    0.326177   -3.242916    0.000000
siesta:     39   -0.966637   -0.783793    0.000000
siesta:     40    0.104359   -0.175068    0.000000
siesta:     41    0.712939   -0.559036    0.000000
siesta:     42    0.148619   -3.147039    0.000000
siesta:     43    3.193686    1.181251    0.000000
siesta:     44   -0.054783    1.296042    0.000000
siesta:     45   -2.775602    1.866909    0.000000
siesta:     46    0.671663   -0.402239    0.000000
siesta:     47   -0.581445    0.834494    0.000000
siesta:     48   -0.319877   -0.551059    0.000000
siesta:     49    0.140084    0.581932    0.000000
siesta:     50    3.085920    1.601970    0.000000
siesta:     51   -1.211567   -0.699571    0.000000
siesta:     52    0.392701    0.268652    0.000000
siesta:     53    2.853251    1.889531    0.000000
siesta:     54    0.396832   -0.086413    0.000000
siesta:     55   -0.001528    0.483963    0.000000
siesta:     56    0.152717    0.359321    0.000000
siesta:     57    0.300916   -0.278466    0.000000
siesta:     58    1.180702   -1.006972    0.000000
siesta:     59   -0.095524   -3.400035    0.000000
siesta:     60   -0.119608    0.088881    0.000000
siesta:     61   -0.435627   -0.827860    0.000000
siesta:     62   -1.148689    3.292870    0.000000
siesta:     63   -0.355154    0.658465    0.000000
siesta:     64   -0.343107   -0.213084    0.000000
siesta:     65   -3.327307    2.099432    0.000000
siesta:     66    0.199992   -0.009140    0.000000
siesta:     67   -0.161710   -0.061453    0.000000
siesta:     68    0.155893    0.148371    0.000000
siesta:     69    0.019971   -0.032003    0.000000
siesta:     70    3.541460   -2.080843    0.000000
siesta:     71    0.063937    0.041816    0.000000
siesta:     72    0.086578    0.047695    0.000000
siesta: ----------------------------------------
siesta:    Tot    0.187390   -0.144702    0.000000

siesta: Stress tensor (static) (eV/Ang**3):
siesta:    -0.074737   -0.000246    0.000000
siesta:    -0.000246   -0.073671    0.000000
siesta:     0.000000    0.000000   -0.000157

siesta: Cell volume =       1893.226895 Ang**3

siesta: Pressure (static):
siesta:                Solid            Molecule  Units
siesta:           0.00053935          0.00076559  Ry/Bohr**3
siesta:           0.04952172          0.07029379  eV/Ang**3
siesta:          79.34339886        112.62428853  kBar
(Free)E+ p_basis*V_orbitals  =      -11110.521918
(Free)Eharris+ p_basis*V_orbitals  =      -11110.516465

siesta: Electric dipole (a.u.)  =    0.000000    0.000000    0.000000
siesta: Electric dipole (Debye) =    0.000000    0.000000    0.000000

* Maximum dynamic memory allocated : Node    0 =   221 MB
* Maximum dynamic memory allocated : Node    1 =    80 MB
* Maximum dynamic memory allocated : Node    2 =    84 MB
* Maximum dynamic memory allocated : Node    3 =   211 MB
* Maximum dynamic memory allocated : Node    4 =   223 MB
* Maximum dynamic memory allocated : Node    5 =    81 MB
* Maximum dynamic memory allocated : Node    6 =    84 MB
* Maximum dynamic memory allocated : Node    7 =   205 MB

* Maximum memory occured during matrixMtoO                    

timer: CPU execution times:
timer:  Routine       Calls   Time/call    Tot.time        %
timer:  siesta            1  180117.843  180117.843   100.00
timer:  Setup             1       3.769       3.769     0.00
timer:  bands             1       0.014       0.014     0.00
timer:  writewave         1       0.042       0.042     0.00
timer:  KSV_init          1       0.004       0.004     0.00
timer:  IterMD            1  180106.136  180106.136    99.99
timer:  hsparse           1       0.392       0.392     0.00
timer:  overlap           1       6.400       6.400     0.00
timer:  IterSCF          27    6663.247  179907.664    99.88
timer:  kinefsm           2       3.308       6.617     0.00
timer:  nlefsm            2      20.337      40.674     0.02
timer:  DHSCF            28     108.990    3051.726     1.69
timer:  DHSCF1            1       0.988       0.988     0.00
timer:  DHSCF2            1      41.969      41.969     0.02
timer:  REORD           226       0.010       2.261     0.00
timer:  POISON           29       2.239      64.942     0.04
timer:  DHSCF3           28     106.064    2969.805     1.65
timer:  rhoofd           28      20.441     572.334     0.32
timer:  cellXC           28       3.487      97.622     0.05
timer:  vmat             28      51.870    1452.355     0.81
timer:  MolMec            2       0.000       0.000     0.00
timer:  diagon           27    6552.469  176916.652    98.22
timer:  c-eigval       9504       6.684   63521.118    35.27
timer:  c-buildHS      9504       0.123    1165.313     0.65
timer:  cdiag         19008       6.884  130853.603    72.65
timer:  cdiag1        19008       0.427    8122.384     4.51
timer:  cdiag2        19008       1.905   36209.992    20.10
timer:  cdiag3        19008       3.953   75144.248    41.72
timer:  cdiag4        19008       0.229    4358.725     2.42
timer:  c-eigvec       9504       7.280   69185.563    38.41
timer:  c-buildD       9504       4.643   44131.031    24.50
timer:  DHSCF4            1      37.459      37.459     0.02
timer:  dfscf             1      34.908      34.908     0.02
timer:  overfsm           1       0.428       0.428     0.00
timer:  optical           1       6.988       6.988     0.00
  

elaps: ELAPSED times:
elaps:  Routine       Calls   Time/call    Tot.time        %
elaps:  siesta            1   22540.434   22540.434   100.00
elaps:  Setup             1       0.486       0.486     0.00
elaps:  bands             1       0.003       0.003     0.00
elaps:  writewave         1       0.006       0.006     0.00
elaps:  KSV_init          1       0.001       0.001     0.00
elaps:  IterMD            1   22538.947   22538.947    99.99
elaps:  hsparse           1       0.049       0.049     0.00
elaps:  overlap           1       0.528       0.528     0.00
elaps:  IterSCF          27     833.874   22514.589    99.89
elaps:  kinefsm           2       0.277       0.555     0.00
elaps:  nlefsm            2       2.606       5.213     0.02
elaps:  DHSCF            28      13.769     385.543     1.71
elaps:  DHSCF1            1       0.126       0.126     0.00
elaps:  DHSCF2            1       5.250       5.250     0.02
elaps:  REORD           226       0.001       0.306     0.00
elaps:  POISON           29       0.280       8.130     0.04
elaps:  DHSCF3           28      13.269     371.531     1.65
elaps:  rhoofd           28       4.211     117.897     0.52
elaps:  cellXC           28       0.435      12.187     0.05
elaps:  vmat             28       6.489     181.694     0.81
elaps:  MolMec            2       0.000       0.000     0.00
elaps:  diagon           27     820.006   22140.173    98.22
elaps:  c-eigval       9504       0.836    7947.492    35.26
elaps:  c-buildHS      9504       0.017     157.525     0.70
elaps:  cdiag         19008       0.850   16164.420    71.71
elaps:  cdiag1        19008       0.053    1006.152     4.46
elaps:  cdiag2        19008       0.238    4530.690    20.10
elaps:  cdiag3        19008       0.495    9414.186    41.77
elaps:  cdiag4        19008       0.029     544.451     2.42
elaps:  c-eigvec       9504       0.893    8488.140    37.66
elaps:  c-buildD       9504       0.599    5693.960    25.26
elaps:  DHSCF4            1       8.429       8.429     0.04
elaps:  dfscf             1       7.945       7.945     0.04
elaps:  overfsm           1       0.053       0.053     0.00
elaps:  optical           1       0.001       0.001     0.00
  
>> End of run:  29-NOV-2015   0:54:51
