Siesta Version:                                        siesta-3.2-pl-3
Architecture  : x86_64-unknown-linux-gnu--unknown
Compiler flags: mpiifort -g -O2 -fPIC -xSSE4.1 -fp-model source -shared-intel 
PARALLEL version

* Running on    8 nodes in parallel
>> Start of run:  27-NOV-2015   9:55:59

                           ***********************       
                           *  WELCOME TO SIESTA  *       
                           ***********************       

reinit: Reading from standard input
************************** Dump of input data file ****************************
#(1) General system descriptors
SystemName            GRP_doping    # Descriptive name of the system
SystemLabel           GRP_doping    # Short name for naming files
%include STRUCT.fdf
%include KPT.fdf
%include BASIS.fdf
#%include TS.fdf # for transiesta calculation
#(4) DFT, Grid, SCF
XC.functional         GGA           # LDA or GGA (default = LDA)
XC.authors            PBE           # CA (Ceperley-Aldr) = PZ
                                    #    (Perdew-Zunger) - LDA - Default
                                    # PW92 (Perdew-Wang-92) - LDA
                                    # PBE (Perdew-Burke-Ernzerhof) - GGA
MeshCutoff            200.000000    Ry      # Default: 50.0 Ry ~ 0.444 Bohr
                                    #         100.0 Ry ~ 0.314 Bohr
MaxSCFIterations      500           # Default: 50
DM.MixingWeight       0.05          # Default: 0.25
DM.NumberPulay        10            # Default: 0
DM.PulayOnFile        F             # SystemLabel.P1, SystemLabel.P2
DM.Tolerance          1.d-4         # Default: 1.d-4
DM.UseSaveDM          .true.        # because of the bug
SCFMustConverge       .true.
NeglNonOverlapInt     F             # Default: F
#(5) Eigenvalue problem: order-N or diagonalization
SolutionMethod        Diagon        # or Transiesta
ElectronicTemperature 300.0 K       # Default: 300.0 K
#(6) Molecular dynamics and relaxations
#MD.TypeOfRun          CG            # Type of dynamics:
#MD.VariableCell       F
#MD.NumCGsteps         0           # 0 for single-point / 100 for gopt
#MD.MaxCGDispl         0.2 Bohr      # Default: 0.2 Bohr
#MD.MaxForceTol        0.02 eV/Ang   # Default: 0.04 eV/Ang
#MD.MaxStressTol       1.0 GPa       # Default: 1.0 GPa
# Geometry Constraints
#%block GeometryConstraints
#	position from 1 to 44
#%endblock GeometryConstraints
************************** End of input data file *****************************

reinit: -----------------------------------------------------------------------
reinit: System Name: GRP_doping
reinit: -----------------------------------------------------------------------
reinit: System Label: GRP_doping                                                  
reinit: -----------------------------------------------------------------------

initatom: Reading input for the pseudopotentials and atomic orbitals ----------
 Species number:            1  Label: B Atomic number:           5
 Species number:            2  Label: C Atomic number:           6
Ground state valence configuration:   2s02  2p01
Reading pseudopotential information in formatted form from B.psf

Valence configuration for pseudopotential generation:
2s( 2.00) rc: 1.74
2p( 1.00) rc: 1.74
3d( 0.00) rc: 1.74
4f( 0.00) rc: 1.74
Ground state valence configuration:   2s02  2p02
Reading pseudopotential information in formatted form from C.psf

Valence configuration for pseudopotential generation:
2s( 2.00) rc: 1.54
2p( 2.00) rc: 1.54
3d( 0.00) rc: 1.54
4f( 0.00) rc: 1.54
For B, standard SIESTA heuristics set lmxkb to 3
 (one more than the basis l, including polarization orbitals).
Use PS.lmax or PS.KBprojectors blocks to override.
For C, standard SIESTA heuristics set lmxkb to 3
 (one more than the basis l, including polarization orbitals).
Use PS.lmax or PS.KBprojectors blocks to override.

<basis_specs>
===============================================================================
B                    Z=   5    Mass=  10.810        Charge= 0.17977+309
Lmxo=1 Lmxkb= 3    BasisType=split      Semic=F
L=0  Nsemic=0  Cnfigmx=2
          n=1  nzeta=2  polorb=0
            splnorm:   0.15000    
               vcte:    0.0000    
               rinn:    0.0000    
                rcs:    0.0000      0.0000    
            lambdas:    1.0000      1.0000    
L=1  Nsemic=0  Cnfigmx=2
          n=1  nzeta=2  polorb=1
            splnorm:   0.15000    
               vcte:    0.0000    
               rinn:    0.0000    
                rcs:    0.0000      0.0000    
            lambdas:    1.0000      1.0000    
-------------------------------------------------------------------------------
L=0  Nkbl=1  erefs: 0.17977+309
L=1  Nkbl=1  erefs: 0.17977+309
L=2  Nkbl=1  erefs: 0.17977+309
L=3  Nkbl=1  erefs: 0.17977+309
===============================================================================
</basis_specs>

atom: Called for B                     (Z =   5)

read_vps: Pseudopotential generation method:
read_vps: ATM3      Troullier-Martins                       
Total valence charge:    3.00000

read_vps: Pseudopotential includes a core correction:
read_vps: Pseudo-core for xc-correction

xc_check: Exchange-correlation functional:
xc_check: GGA Perdew, Burke & Ernzerhof 1996
V l=0 = -2*Zval/r beyond r=  1.7165
V l=1 = -2*Zval/r beyond r=  1.7165
V l=2 = -2*Zval/r beyond r=  1.7165
V l=3 = -2*Zval/r beyond r=  1.6951
All V_l potentials equal beyond r=  1.7165
This should be close to max(r_c) in ps generation
All pots = -2*Zval/r beyond r=  1.7165

VLOCAL1: 99.0% of the norm of Vloc inside     14.733 Ry
VLOCAL1: 99.9% of the norm of Vloc inside     33.577 Ry
atom: Maximum radius for 4*pi*r*r*local-pseudopot. charge    2.04484
atom: Maximum radius for r*vlocal+2*Zval:    1.75994
GHOST: No ghost state for L =  0
GHOST: No ghost state for L =  1
GHOST: No ghost state for L =  2
GHOST: No ghost state for L =  3

KBgen: Kleinman-Bylander projectors: 
   l= 0   rc=  1.897051   el= -0.693730   Ekb=  4.595746   kbcos=  0.286105
   l= 1   rc=  1.920920   el= -0.265236   Ekb= -2.350715   kbcos= -0.315747
   l= 2   rc=  2.044840   el=  0.002055   Ekb= -0.690767   kbcos= -0.013822
   l= 3   rc=  2.149707   el=  0.003188   Ekb= -0.315358   kbcos= -0.002055

KBgen: Total number of  Kleinman-Bylander projectors:   16
atom: -------------------------------------------------------------------------

atom: SANKEY-TYPE ORBITALS:
atom: Selected multiple-zeta basis: split     

SPLIT: Orbitals with angular momentum L= 0

SPLIT: Basis orbitals for state 2s

SPLIT: PAO cut-off radius determined from an
SPLIT: energy shift=  0.007350 Ry

   izeta = 1
                 lambda =    1.000000
                     rc =    5.422032
                 energy =   -0.686029
                kinetic =    0.576707
    potential(screened) =   -1.262736
       potential(ionic) =   -3.271094

   izeta = 2
                 rmatch =    4.222573
              splitnorm =    0.150000
                 energy =   -0.602132
                kinetic =    0.858975
    potential(screened) =   -1.461107
       potential(ionic) =   -3.582536

SPLIT: Orbitals with angular momentum L= 1

SPLIT: Basis orbitals for state 2p

SPLIT: PAO cut-off radius determined from an
SPLIT: energy shift=  0.007350 Ry

   izeta = 1
                 lambda =    1.000000
                     rc =    6.790259
                 energy =   -0.258578
                kinetic =    1.481412
    potential(screened) =   -1.739989
       potential(ionic) =   -3.657461

   izeta = 2
                 rmatch =    4.608740
              splitnorm =    0.150000
                 energy =   -0.173757
                kinetic =    2.186690
    potential(screened) =   -2.360447
       potential(ionic) =   -4.464260

POLgen: Perturbative polarization orbital with L=  2

POLgen: Polarization orbital for state 2p

   izeta = 1
                     rc =    6.790259
                 energy =    0.684082
                kinetic =    1.471481
    potential(screened) =   -0.787399
       potential(ionic) =   -2.406985
atom: Total number of Sankey-type orbitals: 13

atm_pop: Valence configuration (for local Pseudopot. screening):
 2s( 2.00)                                                            
 2p( 1.00)                                                            
Vna: chval, zval:    3.00000   3.00000

Vna:  Cut-off radius for the neutral-atom potential:   6.790259
comcore: Pseudo-core radius Rcore=  2.122997

atom: _________________________________________________________________________

<basis_specs>
===============================================================================
C                    Z=   6    Mass=  12.010        Charge= 0.17977+309
Lmxo=1 Lmxkb= 3    BasisType=split      Semic=F
L=0  Nsemic=0  Cnfigmx=2
          n=1  nzeta=2  polorb=0
            splnorm:   0.15000    
               vcte:    0.0000    
               rinn:    0.0000    
                rcs:    0.0000      0.0000    
            lambdas:    1.0000      1.0000    
L=1  Nsemic=0  Cnfigmx=2
          n=1  nzeta=2  polorb=1
            splnorm:   0.15000    
               vcte:    0.0000    
               rinn:    0.0000    
                rcs:    0.0000      0.0000    
            lambdas:    1.0000      1.0000    
-------------------------------------------------------------------------------
L=0  Nkbl=1  erefs: 0.17977+309
L=1  Nkbl=1  erefs: 0.17977+309
L=2  Nkbl=1  erefs: 0.17977+309
L=3  Nkbl=1  erefs: 0.17977+309
===============================================================================
</basis_specs>

atom: Called for C                     (Z =   6)

read_vps: Pseudopotential generation method:
read_vps: ATM3      Troullier-Martins                       
Total valence charge:    4.00000

read_vps: Pseudopotential includes a core correction:
read_vps: Pseudo-core for xc-correction

xc_check: Exchange-correlation functional:
xc_check: GGA Perdew, Burke & Ernzerhof 1996
V l=0 = -2*Zval/r beyond r=  1.5227
V l=1 = -2*Zval/r beyond r=  1.5227
V l=2 = -2*Zval/r beyond r=  1.5227
V l=3 = -2*Zval/r beyond r=  1.5038
All V_l potentials equal beyond r=  1.5227
This should be close to max(r_c) in ps generation
All pots = -2*Zval/r beyond r=  1.5227

VLOCAL1: 99.0% of the norm of Vloc inside     18.722 Ry
VLOCAL1: 99.9% of the norm of Vloc inside     42.668 Ry
atom: Maximum radius for 4*pi*r*r*local-pseudopot. charge    1.83678
atom: Maximum radius for r*vlocal+2*Zval:    1.58088
GHOST: No ghost state for L =  0
GHOST: No ghost state for L =  1
GHOST: No ghost state for L =  2
GHOST: No ghost state for L =  3

KBgen: Kleinman-Bylander projectors: 
   l= 0   rc=  1.704034   el= -1.009801   Ekb=  5.335044   kbcos=  0.316824
   l= 1   rc=  1.704034   el= -0.388707   Ekb= -3.785862   kbcos= -0.366464
   l= 2   rc=  1.791422   el=  0.001971   Ekb= -0.970471   kbcos= -0.009212
   l= 3   rc=  1.859892   el=  0.003065   Ekb= -0.399525   kbcos= -0.001223

KBgen: Total number of  Kleinman-Bylander projectors:   16
atom: -------------------------------------------------------------------------

atom: SANKEY-TYPE ORBITALS:
atom: Selected multiple-zeta basis: split     

SPLIT: Orbitals with angular momentum L= 0

SPLIT: Basis orbitals for state 2s

SPLIT: PAO cut-off radius determined from an
SPLIT: energy shift=  0.007350 Ry

   izeta = 1
                 lambda =    1.000000
                     rc =    4.632753
                 energy =   -1.002270
                kinetic =    0.855760
    potential(screened) =   -1.858031
       potential(ionic) =   -5.417575

   izeta = 2
                 rmatch =    3.431921
              splitnorm =    0.150000
                 energy =   -0.867111
                kinetic =    1.300804
    potential(screened) =   -2.167915
       potential(ionic) =   -5.962684

SPLIT: Orbitals with angular momentum L= 1

SPLIT: Basis orbitals for state 2p

SPLIT: PAO cut-off radius determined from an
SPLIT: energy shift=  0.007350 Ry

   izeta = 1
                 lambda =    1.000000
                     rc =    5.658549
                 energy =   -0.381140
                kinetic =    2.399701
    potential(screened) =   -2.780841
       potential(ionic) =   -6.206085

   izeta = 2
                 rmatch =    3.653288
              splitnorm =    0.150000
                 energy =   -0.249149
                kinetic =    3.542762
    potential(screened) =   -3.791911
       potential(ionic) =   -7.581078

POLgen: Perturbative polarization orbital with L=  2

POLgen: Polarization orbital for state 2p

   izeta = 1
                     rc =    5.658549
                 energy =    1.109913
                kinetic =    2.304789
    potential(screened) =   -1.194876
       potential(ionic) =   -4.013592
atom: Total number of Sankey-type orbitals: 13

atm_pop: Valence configuration (for local Pseudopot. screening):
 2s( 2.00)                                                            
 2p( 2.00)                                                            
Vna: chval, zval:    4.00000   4.00000

Vna:  Cut-off radius for the neutral-atom potential:   5.658549
comcore: Pseudo-core radius Rcore=  1.791422

atom: _________________________________________________________________________

prinput: Basis input ----------------------------------------------------------

PAO.BasisType split     

%block ChemicalSpeciesLabel
    1    5 B                       # Species index, atomic number, species label
    2    6 C                       # Species index, atomic number, species label
%endblock ChemicalSpeciesLabel

%block PAO.Basis                 # Define Basis set
B                     2                    # Species label, number of l-shells
 n=2   0   2                         # n, l, Nzeta 
   5.422      4.223   
   1.000      1.000   
 n=2   1   2 P   1                   # n, l, Nzeta, Polarization, NzetaPol
   6.790      4.609   
   1.000      1.000   
C                     2                    # Species label, number of l-shells
 n=2   0   2                         # n, l, Nzeta 
   4.633      3.432   
   1.000      1.000   
 n=2   1   2 P   1                   # n, l, Nzeta, Polarization, NzetaPol
   5.659      3.653   
   1.000      1.000   
%endblock PAO.Basis

prinput: ----------------------------------------------------------------------

coor:   Atomic-coordinates input format  =     Cartesian coordinates
coor:                                          (in Angstroms)

siesta: Atomic coordinates (Bohr) and species
siesta:      2.23554   1.32097   0.00000  1        1
siesta:     11.54782   1.32097   0.00000  1        2
siesta:     20.86199   1.32097   0.00000  1        3
siesta:      6.89205   9.38661   0.00000  1        4
siesta:     16.20434   9.38661   0.00000  1        5
siesta:     11.54857  17.45226   0.00000  1        6
siesta:     25.51851   9.38661   0.00000  1        7
siesta:     20.86274  17.45226   0.00000  1        8
siesta:     39.48945  22.82873   0.00000  1        9
siesta:      4.56367   2.66461   0.00000  2       10
siesta:     32.50328  21.48508   0.00000  2       11
siesta:     34.83141  22.82873   0.00000  2       12
siesta:     34.83116  17.45226   0.00000  2       13
siesta:     37.15930  18.79590   0.00000  2       14
siesta:     32.50291  13.41944   0.00000  2       15
siesta:     34.83104  14.76308   0.00000  2       16
siesta:     30.17465   9.38661   0.00000  2       17
siesta:     32.50278  10.73026   0.00000  2       18
siesta:     27.84639   5.35379   0.00000  2       19
siesta:     30.17453   6.69743   0.00000  2       20
siesta:     27.84714  21.48508   0.00000  2       21
siesta:     30.17527  22.82873   0.00000  2       22
siesta:      6.89168   1.32097   0.00000  2       23
siesta:      9.21981   2.66461   0.00000  2       24
siesta:     13.87595   2.66461   0.00000  2       25
siesta:     16.20396   1.32097   0.00000  2       26
siesta:     18.53210   2.66461   0.00000  2       27
siesta:     23.19013   2.66461   0.00000  2       28
siesta:     25.51813   1.32097   0.00000  2       29
siesta:     27.84627   2.66461   0.00000  2       30
siesta:      4.56380   5.35379   0.00000  2       31
siesta:      6.89193   6.69743   0.00000  2       32
siesta:      9.21994   5.35379   0.00000  2       33
siesta:     11.54807   6.69743   0.00000  2       34
siesta:     13.87608   5.35379   0.00000  2       35
siesta:     16.20421   6.69743   0.00000  2       36
siesta:     18.53411   5.35379   0.00000  2       37
siesta:     20.86224   6.69743   0.00000  2       38
siesta:     23.19025   5.35379   0.00000  2       39
siesta:     25.51838   6.69743   0.00000  2       40
siesta:      9.22019  10.73026   0.00000  2       41
siesta:     11.54820   9.38661   0.00000  2       42
siesta:     13.87633  10.73026   0.00000  2       43
siesta:     18.53247  10.73026   0.00000  2       44
siesta:     20.86237   9.38661   0.00000  2       45
siesta:     23.19050  10.73026   0.00000  2       46
siesta:      9.22031  13.41944   0.00000  2       47
siesta:     11.54845  14.76308   0.00000  2       48
siesta:     13.87645  13.41944   0.00000  2       49
siesta:     16.20459  14.76308   0.00000  2       50
siesta:     18.53448  13.41944   0.00000  2       51
siesta:     20.86262  14.76308   0.00000  2       52
siesta:     13.87670  18.79590   0.00000  2       53
siesta:     16.20471  17.45226   0.00000  2       54
siesta:     18.53284  18.79590   0.00000  2       55
siesta:     13.87683  21.48508   0.00000  2       56
siesta:     16.20496  22.82873   0.00000  2       57
siesta:     18.53486  21.48508   0.00000  2       58
siesta:     20.86299  22.82873   0.00000  2       59
siesta:     27.84664  10.73026   0.00000  2       60
siesta:     23.19063  13.41944   0.00000  2       61
siesta:     25.51876  14.76308   0.00000  2       62
siesta:     23.19088  18.79590   0.00000  2       63
siesta:     27.84677  13.41944   0.00000  2       64
siesta:     30.17490  14.76308   0.00000  2       65
siesta:     25.51888  17.45226   0.00000  2       66
siesta:     27.84702  18.79590   0.00000  2       67
siesta:     23.19100  21.48508   0.00000  2       68
siesta:     25.51913  22.82873   0.00000  2       69
siesta:     30.17503  17.45226   0.00000  2       70
siesta:     32.50316  18.79590   0.00000  2       71
siesta:     37.16131  21.48508   0.00000  2       72

siesta: System type = slab      

initatomlists: Number of atoms, orbitals, and projectors:     72   936  1152

siesta: ******************** Simulation parameters ****************************
siesta:
siesta: The following are some of the parameters of the simulation.
siesta: A complete list of the parameters used, including default values,
siesta: can be found in file out.fdf
siesta:
redata: Non-Collinear-spin run           =     F
redata: SpinPolarized (Up/Down) run      =     F
redata: Number of spin components        =     1
redata: Long output                      =     F
redata: Number of Atomic Species         =        2
redata: Charge density info will appear in .RHO file
redata: Write Mulliken Pop.              =     NO
redata: Mesh Cutoff                      =   200.0000  Ry
redata: Net charge of the system         =     0.0000 |e|
redata: Max. number of SCF Iter          =      500
redata: SCF convergence failure will abort job
redata: Performing Pulay mixing using    =    10 iterations
redata: Mix DM in first SCF step ?       =     F
redata: Write Pulay info on disk?        =     F
redata: Discard 1st Pulay DM after  kick =     F
redata: New DM Mixing Weight             =     0.0500
redata: New DM Occupancy tolerance       = 0.000000000001
redata: No kicks to SCF
redata: DM Mixing Weight for Kicks       =     0.5000
redata: DM Tolerance for SCF             =     0.000100
redata: Require Energy convergence for SCF =     F
redata: DM Energy tolerance for SCF      =     0.000100 eV
redata: Require Harris convergence for SCF =     F
redata: DM Harris energy tolerance for SCF =     0.000100 eV
redata: Using Saved Data (generic)   =     F
redata: Use continuation files for DM    =     T
redata: Neglect nonoverlap interactions  =     F
redata: Method of Calculation            =     Diagonalization
redata: Divide and Conquer               =     T
redata: Electronic Temperature           =     0.0019  Ry
redata: Fix the spin of the system       =     F
redata: Dynamics option                  =     Verlet MD run
redata: Initial MD time step             =        1
redata:   Final MD time step             =        1
redata: Length of MD time step           =     1.0000  fs
redata: Initial Temperature of MD run    =     0.0000  K
redata: Perform a MD quench              =     F
redata: ***********************************************************************
Total number of electrons:   279.000000
Total ionic charge:   279.000000

* ProcessorY, Blocksize:    2  24

k-point displ. along   1 input, could be:     0.00    0.50
k-point displ. along   2 input, could be:     0.00    0.50
 Kpoints in:          364 . Kpoints trimmed:          352

siesta: k-grid: Number of k-points =   352
siesta: k-grid: Cutoff (effective) =     5.000 Ang
siesta: k-grid: Supercell and displacements
siesta: k-grid:   26   0   0      0.000
siesta: k-grid:    0  26   0      0.000
siesta: k-grid:    0   0   1      0.000
Naive supercell factors:     2    2    2

superc: Internal auxiliary supercell:     2 x     2 x     2  =       8
superc: Number of atoms, orbitals, and projectors:    576   7488   9216

* Maximum dynamic memory allocated =     6 MB

siesta:                 ==============================
                            Begin MD step =      1
                        ==============================

superc: Internal auxiliary supercell:     2 x     2 x     2  =       8
superc: Number of atoms, orbitals, and projectors:    576   7488   9216

outcell: Unit cell vectors (Ang):
       14.785000    0.000000    0.000000
        7.393000   12.805052    0.000000
        0.000000    0.000000   10.000000

outcell: Cell vector modules (Ang)   :   14.785000   14.786000   10.000000
outcell: Cell angles (23,13,12) (deg):     90.0000     90.0000     60.0000
outcell: Cell volume (Ang**3)        :   1893.2269
New_DM. Step:     1
Initializing Density Matrix...

InitMesh: MESH =   120 x   120 x    90 =     1296000
InitMesh: Mesh cutoff (required, used) =   200.000   223.865 Ry

* Maximum dynamic memory allocated =   207 MB

stepf: Fermi-Dirac step function

siesta: Program's energy decomposition (eV):
siesta: Ebs     =     -4462.194682
siesta: Eions   =     17250.500670
siesta: Ena     =      3769.671623
siesta: Ekin    =      5903.534022
siesta: Enl     =       294.168620
siesta: DEna    =        -0.000010
siesta: DUscf   =         0.000000
siesta: DUext   =         0.000000
siesta: Exc     =     -3961.786015
siesta: eta*DQ  =         0.000000
siesta: Emadel  =         0.000000
siesta: Emeta   =         0.000000
siesta: Emolmec =         0.000000
siesta: Ekinion =         0.000000
siesta: Eharris =    -11173.106969
siesta: Etot    =    -11244.912430
siesta: FreeEng =    -11244.912430

siesta: iscf   Eharris(eV)      E_KS(eV)   FreeEng(eV)   dDmax  Ef(eV)
siesta:    1   -11173.1070   -11244.9124   -11244.9124  1.8846 -8.0694
timer: Routine,Calls,Time,% = IterSCF        1    6766.297  99.82
elaps: Routine,Calls,Wall,% = IterSCF        1     846.859  99.81
siesta:    2   -11183.3684   -11127.7875   -11127.8173  0.4557 -4.1173
siesta:    3   -11152.5306   -11161.3120   -11161.3681  0.4502 -5.5103
siesta:    4   -11150.3201   -11156.4139   -11156.4416  0.3669 -5.4845
siesta:    5   -11148.0641   -11149.2067   -11149.2376  0.1966 -5.6774
siesta:    6   -11148.9270   -11145.6687   -11145.7060  0.1205 -5.7513
siesta:    7   -11146.8015   -11142.6387   -11142.6768  0.0515 -5.8357
siesta:    8   -11146.5261   -11142.3153   -11142.3402  0.0397 -5.8630
siesta:    9   -11145.5657   -11142.5243   -11142.5513  0.0255 -5.9130
siesta:   10   -11145.4629   -11142.9415   -11142.9715  0.0202 -5.9273
siesta:   11   -11145.4340   -11143.2639   -11143.2928  0.0159 -5.9295
siesta:   12   -11145.4257   -11143.8344   -11143.8631  0.0117 -5.9251
siesta:   13   -11145.4237   -11144.5362   -11144.5653  0.0055 -5.9203
siesta:   14   -11145.4244   -11145.1870   -11145.2165  0.0033 -5.9167
siesta:   15   -11145.4231   -11145.2912   -11145.3208  0.0009 -5.9175
siesta:   16   -11145.4230   -11145.4115   -11145.4407  0.0009 -5.9176
siesta:   17   -11145.4228   -11145.4378   -11145.4670  0.0006 -5.9176
siesta:   18   -11145.4228   -11145.4371   -11145.4663  0.0004 -5.9173
siesta:   19   -11145.4228   -11145.4182   -11145.4475  0.0004 -5.9175
siesta:   20   -11145.4228   -11145.4232   -11145.4524  0.0002 -5.9176
siesta:   21   -11145.4228   -11145.4264   -11145.4556  0.0002 -5.9176
siesta:   22   -11145.4228   -11145.4274   -11145.4566  0.0001 -5.9176

siesta: E_KS(eV) =           -11145.4317

siesta: E_KS - E_eggbox =    -11145.4317

siesta: Atomic forces (eV/Ang):
----------------------------------------
   Tot    0.193315   -0.137737    0.000000
----------------------------------------
   Max    5.123215
   Res    1.327559    sqrt( Sum f_i^2 / 3N )
----------------------------------------
   Max    5.123215    constrained

Stress-tensor-Voigt (kbar):     -119.27     -118.24       -0.25       -0.58        0.00        0.00
(Free)E + p*V (eV/cell)   -11051.8094
Target enthalpy (eV/cell)   -11145.4609

siesta: Stress tensor (static) (eV/Ang**3):
        -0.074442   -0.000364    0.000000
        -0.000364   -0.073800    0.000000
         0.000000    0.000000   -0.000158

siesta: Pressure (static):         79.25514729  kBar

siesta: Stress tensor (total) (eV/Ang**3):
        -0.074442   -0.000364    0.000000
        -0.000364   -0.073800    0.000000
         0.000000    0.000000   -0.000158

siesta: Pressure (total):         79.25514729  kBar

siesta: Temp_ion =       0.000 K

* Maximum dynamic memory allocated =   222 MB

siesta: Program's energy decomposition (eV):
siesta: Ebs     =     -3689.430370
siesta: Eions   =     17250.500670
siesta: Ena     =      3769.671623
siesta: Ekin    =      7407.960404
siesta: Enl     =      -692.124839
siesta: DEna    =      -342.768521
siesta: DUscf   =        36.397271
siesta: DUext   =         0.000000
siesta: Exc     =     -4074.066976
siesta: eta*DQ  =         0.000000
siesta: Emadel  =         0.000000
siesta: Emeta   =         0.000000
siesta: Emolmec =         0.000000
siesta: Ekinion =         0.000000
siesta: Eharris =    -11145.422755
siesta: Etot    =    -11145.431709
siesta: FreeEng =    -11145.460928

siesta: Final energy (eV):
siesta:  Band Struct. =   -3689.430370
siesta:       Kinetic =    7407.960404
siesta:       Hartree =   21697.184547
siesta:    Ext. field =       0.000000
siesta:   Exch.-corr. =   -4074.066976
siesta:  Ion-electron =  -50132.081207
siesta:       Ion-ion =   13955.571524
siesta:       Ekinion =       0.000000
siesta:         Total =  -11145.431709

siesta: Atomic forces (eV/Ang):
siesta:      1    0.132290    0.054454    0.000000
siesta:      2    0.092944   -0.028941    0.000000
siesta:      3   -0.203585   -0.002618    0.000000
siesta:      4    0.038677    0.065895    0.000000
siesta:      5   -0.049011   -0.045481    0.000000
siesta:      6   -0.076311   -0.163930    0.000000
siesta:      7    0.048894   -0.044651    0.000000
siesta:      8   -0.034166    0.054859    0.000000
siesta:      9    0.078052    0.110834    0.000000
siesta:     10    2.875100    1.660702    0.000000
siesta:     11    0.038028   -0.210751    0.000000
siesta:     12    0.188451   -3.996785    0.000000
siesta:     13   -0.152247    0.117096    0.000000
siesta:     14   -3.389326    2.150090    0.000000
siesta:     15   -0.334370   -0.081921    0.000000
siesta:     16   -0.481571    0.311540    0.000000
siesta:     17    0.014072    0.999327    0.000000
siesta:     18   -2.859195    1.538194    0.000000
siesta:     19   -0.720627   -0.342887    0.000000
siesta:     20   -0.128150    0.031350    0.000000
siesta:     21   -0.224808   -0.272503    0.000000
siesta:     22    0.016200   -0.558125    0.000000
siesta:     23   -0.088286    1.122847    0.000000
siesta:     24   -2.706580    1.562842    0.000000
siesta:     25    2.732643    1.465149    0.000000
siesta:     26    0.120292    1.453414    0.000000
siesta:     27   -2.944503    1.510936    0.000000
siesta:     28    3.435132    1.865541    0.000000
siesta:     29    0.003833    5.123215    0.000000
siesta:     30   -3.378140    1.881957    0.000000
siesta:     31    0.942461   -0.666707    0.000000
siesta:     32   -0.008162   -3.106869    0.000000
siesta:     33   -0.925195   -0.552138    0.000000
siesta:     34    0.030597    0.025698    0.000000
siesta:     35    0.970910   -0.449173    0.000000
siesta:     36    0.001579   -3.137301    0.000000
siesta:     37   -1.081607   -0.548648    0.000000
siesta:     38    0.083163    0.135311    0.000000
siesta:     39    0.842652   -0.367655    0.000000
siesta:     40   -0.004658   -3.040050    0.000000
siesta:     41    2.632223    1.640412    0.000000
siesta:     42    0.109397    1.039360    0.000000
siesta:     43   -2.736840    1.558979    0.000000
siesta:     44    2.812171    1.597364    0.000000
siesta:     45   -0.114994    1.011078    0.000000
siesta:     46   -2.686202    1.694169    0.000000
siesta:     47    1.331193   -0.654687    0.000000
siesta:     48   -0.183067   -3.329462    0.000000
siesta:     49   -0.985103   -0.652815    0.000000
siesta:     50    0.183313    0.010490    0.000000
siesta:     51    0.798489   -0.590299    0.000000
siesta:     52    0.115339   -3.150754    0.000000
siesta:     53    3.332617    2.050527    0.000000
siesta:     54    0.118349    0.892482    0.000000
siesta:     55   -2.602343    1.519726    0.000000
siesta:     56    4.503190   -2.605591    0.000000
siesta:     57   -0.038132   -3.846485    0.000000
siesta:     58   -0.675862   -0.472548    0.000000
siesta:     59   -0.052882   -0.111657    0.000000
siesta:     60    2.845011    1.569836    0.000000
siesta:     61   -1.153441   -0.683690    0.000000
siesta:     62    0.340974    0.204989    0.000000
siesta:     63    2.775266    1.686307    0.000000
siesta:     64    0.345103   -0.138519    0.000000
siesta:     65    0.020070    0.429268    0.000000
siesta:     66    0.062088    0.348046    0.000000
siesta:     67    0.378709   -0.191967    0.000000
siesta:     68    0.884710   -0.511305    0.000000
siesta:     69   -0.108993   -3.218384    0.000000
siesta:     70    0.042707    0.010391    0.000000
siesta:     71   -0.378008   -0.213973    0.000000
siesta:     72   -4.617210   -2.653140    0.000000
siesta: ----------------------------------------
siesta:    Tot    0.193315   -0.137737    0.000000

siesta: Stress tensor (static) (eV/Ang**3):
siesta:    -0.074442   -0.000364    0.000000
siesta:    -0.000364   -0.073800    0.000000
siesta:     0.000000    0.000000   -0.000158

siesta: Cell volume =       1893.226895 Ang**3

siesta: Pressure (static):
siesta:                Solid            Molecule  Units
siesta:           0.00053875          0.00111523  Ry/Bohr**3
siesta:           0.04946664          0.10239637  eV/Ang**3
siesta:          79.25514729        164.05884954  kBar
(Free)E+ p_basis*V_orbitals  =      -11111.879729
(Free)Eharris+ p_basis*V_orbitals  =      -11111.875098

siesta: Electric dipole (a.u.)  =    0.000000    0.000000    0.000000
siesta: Electric dipole (Debye) =    0.000000    0.000000    0.000000

* Maximum dynamic memory allocated : Node    0 =   222 MB
* Maximum dynamic memory allocated : Node    1 =    81 MB
* Maximum dynamic memory allocated : Node    2 =    84 MB
* Maximum dynamic memory allocated : Node    3 =   211 MB
* Maximum dynamic memory allocated : Node    4 =   222 MB
* Maximum dynamic memory allocated : Node    5 =    79 MB
* Maximum dynamic memory allocated : Node    6 =    82 MB
* Maximum dynamic memory allocated : Node    7 =   204 MB

* Maximum memory occured during matrixMtoO                    

timer: CPU execution times:
timer:  Routine       Calls   Time/call    Tot.time        %
timer:  siesta            1  148225.486  148225.486   100.00
timer:  Setup             1       3.839       3.839     0.00
timer:  bands             1       0.015       0.015     0.00
timer:  writewave         1       0.039       0.039     0.00
timer:  KSV_init          1       0.006       0.006     0.00
timer:  IterMD            1  148213.783  148213.783    99.99
timer:  hsparse           1       0.392       0.392     0.00
timer:  overlap           1       6.393       6.393     0.00
timer:  IterSCF          22    6728.153  148019.356    99.86
timer:  kinefsm           2       3.310       6.621     0.00
timer:  nlefsm            2      20.373      40.747     0.03
timer:  DHSCF            23     104.719    2408.541     1.62
timer:  DHSCF1            1       0.990       0.990     0.00
timer:  DHSCF2            1      41.609      41.609     0.03
timer:  REORD           186       0.010       1.891     0.00
timer:  POISON           24       2.246      53.911     0.04
timer:  DHSCF3           23     101.193    2327.430     1.57
timer:  rhoofd           23      19.997     459.942     0.31
timer:  cellXC           23       3.507      80.663     0.05
timer:  vmat             23      51.463    1183.649     0.80
timer:  MolMec            2       0.000       0.000     0.00
timer:  diagon           22    6621.615  145675.519    98.28
timer:  c-eigval       7744       6.691   51816.391    34.96
timer:  c-buildHS      7744       0.122     948.485     0.64
timer:  cdiag         15488       6.950  107640.846    72.62
timer:  cdiag1        15488       0.426    6596.351     4.45
timer:  cdiag2        15488       1.907   29531.931    19.92
timer:  cdiag3        15488       3.957   61285.493    41.35
timer:  cdiag4        15488       0.230    3569.050     2.41
timer:  c-eigvec       7744       7.406   57354.428    38.69
timer:  c-buildD       7744       4.706   36440.435    24.58
timer:  DHSCF4            1      37.246      37.246     0.03
timer:  dfscf             1      34.709      34.709     0.02
timer:  overfsm           1       0.426       0.426     0.00
timer:  optical           1       6.918       6.918     0.00
  

elaps: ELAPSED times:
elaps:  Routine       Calls   Time/call    Tot.time        %
elaps:  siesta            1   18561.178   18561.178   100.00
elaps:  Setup             1       0.497       0.497     0.00
elaps:  bands             1       0.002       0.002     0.00
elaps:  writewave         1       0.005       0.005     0.00
elaps:  KSV_init          1       0.001       0.001     0.00
elaps:  IterMD            1   18559.689   18559.689    99.99
elaps:  hsparse           1       0.049       0.049     0.00
elaps:  overlap           1       0.980       0.980     0.01
elaps:  IterSCF          22     842.523   18535.504    99.86
elaps:  kinefsm           2       0.501       1.003     0.01
elaps:  nlefsm            2       2.607       5.213     0.03
elaps:  DHSCF            23      13.256     304.886     1.64
elaps:  DHSCF1            1       0.129       0.129     0.00
elaps:  DHSCF2            1       5.201       5.201     0.03
elaps:  REORD           186       0.001       0.241     0.00
elaps:  POISON           24       0.281       6.755     0.04
elaps:  DHSCF3           23      12.660     291.177     1.57
elaps:  rhoofd           23       4.226      97.191     0.52
elaps:  cellXC           23       0.438      10.079     0.05
elaps:  vmat             23       6.438     148.085     0.80
elaps:  MolMec            2       0.000       0.000     0.00
elaps:  diagon           22     829.206   18242.527    98.28
elaps:  c-eigval       7744       0.837    6483.042    34.93
elaps:  c-buildHS      7744       0.017     129.349     0.70
elaps:  cdiag         15488       0.849   13152.960    70.86
elaps:  cdiag1        15488       0.053     821.969     4.43
elaps:  cdiag2        15488       0.239    3694.773    19.91
elaps:  cdiag3        15488       0.496    7678.206    41.37
elaps:  cdiag4        15488       0.029     445.103     2.40
elaps:  c-eigvec       7744       0.889    6886.413    37.10
elaps:  c-buildD       7744       0.616    4768.169    25.69
elaps:  DHSCF4            1       8.211       8.211     0.04
elaps:  dfscf             1       7.717       7.717     0.04
elaps:  overfsm           1       0.055       0.055     0.00
elaps:  optical           1       0.001       0.001     0.00
  
>> End of run:  27-NOV-2015  15:05:20
