Siesta Version:                                        siesta-3.2-pl-3
Architecture  : x86_64-unknown-linux-gnu--unknown
Compiler flags: mpiifort -g -O2 -fPIC -xSSE4.1 -fp-model source -shared-intel 
PARALLEL version

* Running on    8 nodes in parallel
>> Start of run:  29-NOV-2015  14:25:30

                           ***********************       
                           *  WELCOME TO SIESTA  *       
                           ***********************       

reinit: Reading from standard input
************************** Dump of input data file ****************************
#(1) General system descriptors
SystemName            GRP_doping    # Descriptive name of the system
SystemLabel           GRP_doping    # Short name for naming files
%include STRUCT.fdf
%include KPT.fdf
%include BASIS.fdf
#%include TS.fdf # for transiesta calculation
#(4) DFT, Grid, SCF
XC.functional         GGA           # LDA or GGA (default = LDA)
XC.authors            PBE           # CA (Ceperley-Aldr) = PZ
                                    #    (Perdew-Zunger) - LDA - Default
                                    # PW92 (Perdew-Wang-92) - LDA
                                    # PBE (Perdew-Burke-Ernzerhof) - GGA
MeshCutoff            200.000000    Ry      # Default: 50.0 Ry ~ 0.444 Bohr
                                    #         100.0 Ry ~ 0.314 Bohr
MaxSCFIterations      500           # Default: 50
DM.MixingWeight       0.05          # Default: 0.25
DM.NumberPulay        10            # Default: 0
DM.PulayOnFile        F             # SystemLabel.P1, SystemLabel.P2
DM.Tolerance          1.d-4         # Default: 1.d-4
DM.UseSaveDM          .true.        # because of the bug
SCFMustConverge       .true.
NeglNonOverlapInt     F             # Default: F
#(5) Eigenvalue problem: order-N or diagonalization
SolutionMethod        Diagon        # or Transiesta
ElectronicTemperature 300.0 K       # Default: 300.0 K
#(6) Molecular dynamics and relaxations
#MD.TypeOfRun          CG            # Type of dynamics:
#MD.VariableCell       F
#MD.NumCGsteps         0           # 0 for single-point / 100 for gopt
#MD.MaxCGDispl         0.2 Bohr      # Default: 0.2 Bohr
#MD.MaxForceTol        0.02 eV/Ang   # Default: 0.04 eV/Ang
#MD.MaxStressTol       1.0 GPa       # Default: 1.0 GPa
# Geometry Constraints
#%block GeometryConstraints
#	position from 1 to 44
#%endblock GeometryConstraints
************************** End of input data file *****************************

reinit: -----------------------------------------------------------------------
reinit: System Name: GRP_doping
reinit: -----------------------------------------------------------------------
reinit: System Label: GRP_doping                                                  
reinit: -----------------------------------------------------------------------

initatom: Reading input for the pseudopotentials and atomic orbitals ----------
 Species number:            1  Label: C Atomic number:           6
 Species number:            2  Label: N Atomic number:           7
Ground state valence configuration:   2s02  2p02
Reading pseudopotential information in formatted form from C.psf

Valence configuration for pseudopotential generation:
2s( 2.00) rc: 1.54
2p( 2.00) rc: 1.54
3d( 0.00) rc: 1.54
4f( 0.00) rc: 1.54
Ground state valence configuration:   2s02  2p03
Reading pseudopotential information in formatted form from N.psf

Valence configuration for pseudopotential generation:
2s( 2.00) rc: 1.48
2p( 3.00) rc: 1.48
3d( 0.00) rc: 1.48
4f( 0.00) rc: 1.48
For C, standard SIESTA heuristics set lmxkb to 3
 (one more than the basis l, including polarization orbitals).
Use PS.lmax or PS.KBprojectors blocks to override.
For N, standard SIESTA heuristics set lmxkb to 3
 (one more than the basis l, including polarization orbitals).
Use PS.lmax or PS.KBprojectors blocks to override.

<basis_specs>
===============================================================================
C                    Z=   6    Mass=  12.010        Charge= 0.17977+309
Lmxo=1 Lmxkb= 3    BasisType=split      Semic=F
L=0  Nsemic=0  Cnfigmx=2
          n=1  nzeta=2  polorb=0
            splnorm:   0.15000    
               vcte:    0.0000    
               rinn:    0.0000    
                rcs:    0.0000      0.0000    
            lambdas:    1.0000      1.0000    
L=1  Nsemic=0  Cnfigmx=2
          n=1  nzeta=2  polorb=1
            splnorm:   0.15000    
               vcte:    0.0000    
               rinn:    0.0000    
                rcs:    0.0000      0.0000    
            lambdas:    1.0000      1.0000    
-------------------------------------------------------------------------------
L=0  Nkbl=1  erefs: 0.17977+309
L=1  Nkbl=1  erefs: 0.17977+309
L=2  Nkbl=1  erefs: 0.17977+309
L=3  Nkbl=1  erefs: 0.17977+309
===============================================================================
</basis_specs>

atom: Called for C                     (Z =   6)

read_vps: Pseudopotential generation method:
read_vps: ATM3      Troullier-Martins                       
Total valence charge:    4.00000

read_vps: Pseudopotential includes a core correction:
read_vps: Pseudo-core for xc-correction

xc_check: Exchange-correlation functional:
xc_check: GGA Perdew, Burke & Ernzerhof 1996
V l=0 = -2*Zval/r beyond r=  1.5227
V l=1 = -2*Zval/r beyond r=  1.5227
V l=2 = -2*Zval/r beyond r=  1.5227
V l=3 = -2*Zval/r beyond r=  1.5038
All V_l potentials equal beyond r=  1.5227
This should be close to max(r_c) in ps generation
All pots = -2*Zval/r beyond r=  1.5227

VLOCAL1: 99.0% of the norm of Vloc inside     18.722 Ry
VLOCAL1: 99.9% of the norm of Vloc inside     42.668 Ry
atom: Maximum radius for 4*pi*r*r*local-pseudopot. charge    1.83678
atom: Maximum radius for r*vlocal+2*Zval:    1.58088
GHOST: No ghost state for L =  0
GHOST: No ghost state for L =  1
GHOST: No ghost state for L =  2
GHOST: No ghost state for L =  3

KBgen: Kleinman-Bylander projectors: 
   l= 0   rc=  1.704034   el= -1.009801   Ekb=  5.335044   kbcos=  0.316824
   l= 1   rc=  1.704034   el= -0.388707   Ekb= -3.785862   kbcos= -0.366464
   l= 2   rc=  1.791422   el=  0.001971   Ekb= -0.970471   kbcos= -0.009212
   l= 3   rc=  1.859892   el=  0.003065   Ekb= -0.399525   kbcos= -0.001223

KBgen: Total number of  Kleinman-Bylander projectors:   16
atom: -------------------------------------------------------------------------

atom: SANKEY-TYPE ORBITALS:
atom: Selected multiple-zeta basis: split     

SPLIT: Orbitals with angular momentum L= 0

SPLIT: Basis orbitals for state 2s

SPLIT: PAO cut-off radius determined from an
SPLIT: energy shift=  0.007350 Ry

   izeta = 1
                 lambda =    1.000000
                     rc =    4.632753
                 energy =   -1.002270
                kinetic =    0.855760
    potential(screened) =   -1.858031
       potential(ionic) =   -5.417575

   izeta = 2
                 rmatch =    3.431921
              splitnorm =    0.150000
                 energy =   -0.867111
                kinetic =    1.300804
    potential(screened) =   -2.167915
       potential(ionic) =   -5.962684

SPLIT: Orbitals with angular momentum L= 1

SPLIT: Basis orbitals for state 2p

SPLIT: PAO cut-off radius determined from an
SPLIT: energy shift=  0.007350 Ry

   izeta = 1
                 lambda =    1.000000
                     rc =    5.658549
                 energy =   -0.381140
                kinetic =    2.399701
    potential(screened) =   -2.780841
       potential(ionic) =   -6.206085

   izeta = 2
                 rmatch =    3.653288
              splitnorm =    0.150000
                 energy =   -0.249149
                kinetic =    3.542762
    potential(screened) =   -3.791911
       potential(ionic) =   -7.581078

POLgen: Perturbative polarization orbital with L=  2

POLgen: Polarization orbital for state 2p

   izeta = 1
                     rc =    5.658549
                 energy =    1.109913
                kinetic =    2.304789
    potential(screened) =   -1.194876
       potential(ionic) =   -4.013592
atom: Total number of Sankey-type orbitals: 13

atm_pop: Valence configuration (for local Pseudopot. screening):
 2s( 2.00)                                                            
 2p( 2.00)                                                            
Vna: chval, zval:    4.00000   4.00000

Vna:  Cut-off radius for the neutral-atom potential:   5.658549
comcore: Pseudo-core radius Rcore=  1.791422

atom: _________________________________________________________________________

<basis_specs>
===============================================================================
N                    Z=   7    Mass=  14.010        Charge= 0.17977+309
Lmxo=1 Lmxkb= 3    BasisType=split      Semic=F
L=0  Nsemic=0  Cnfigmx=2
          n=1  nzeta=2  polorb=0
            splnorm:   0.15000    
               vcte:    0.0000    
               rinn:    0.0000    
                rcs:    0.0000      0.0000    
            lambdas:    1.0000      1.0000    
L=1  Nsemic=0  Cnfigmx=2
          n=1  nzeta=2  polorb=1
            splnorm:   0.15000    
               vcte:    0.0000    
               rinn:    0.0000    
                rcs:    0.0000      0.0000    
            lambdas:    1.0000      1.0000    
-------------------------------------------------------------------------------
L=0  Nkbl=1  erefs: 0.17977+309
L=1  Nkbl=1  erefs: 0.17977+309
L=2  Nkbl=1  erefs: 0.17977+309
L=3  Nkbl=1  erefs: 0.17977+309
===============================================================================
</basis_specs>

atom: Called for N                     (Z =   7)

read_vps: Pseudopotential generation method:
read_vps: ATM3      Troullier-Martins                       
Total valence charge:    5.00000

read_vps: Pseudopotential includes a core correction:
read_vps: Pseudo-core for xc-correction

xc_check: Exchange-correlation functional:
xc_check: GGA Perdew, Burke & Ernzerhof 1996
V l=0 = -2*Zval/r beyond r=  1.4606
V l=1 = -2*Zval/r beyond r=  1.4606
V l=2 = -2*Zval/r beyond r=  1.4606
V l=3 = -2*Zval/r beyond r=  1.4606
All V_l potentials equal beyond r=  1.4606
This should be close to max(r_c) in ps generation
All pots = -2*Zval/r beyond r=  1.4606

VLOCAL1: 99.0% of the norm of Vloc inside     20.347 Ry
VLOCAL1: 99.9% of the norm of Vloc inside     46.372 Ry
atom: Maximum radius for 4*pi*r*r*local-pseudopot. charge    1.76189
atom: Maximum radius for r*vlocal+2*Zval:    1.53550
GHOST: No ghost state for L =  0
GHOST: No ghost state for L =  1
GHOST: No ghost state for L =  2
GHOST: No ghost state for L =  3

KBgen: Kleinman-Bylander projectors: 
   l= 0   rc=  1.634559   el= -1.363963   Ekb=  5.296955   kbcos=  0.335621
   l= 1   rc=  1.614250   el= -0.521451   Ekb= -5.259161   kbcos= -0.433408
   l= 2   rc=  1.718383   el=  0.001991   Ekb= -1.271464   kbcos= -0.007566
   l= 3   rc=  1.761893   el=  0.003093   Ekb= -0.494769   kbcos= -0.001015

KBgen: Total number of  Kleinman-Bylander projectors:   16
atom: -------------------------------------------------------------------------

atom: SANKEY-TYPE ORBITALS:
atom: Selected multiple-zeta basis: split     

SPLIT: Orbitals with angular momentum L= 0

SPLIT: Basis orbitals for state 2s

SPLIT: PAO cut-off radius determined from an
SPLIT: energy shift=  0.007350 Ry

   izeta = 1
                 lambda =    1.000000
                     rc =    4.071465
                 energy =   -1.356470
                kinetic =    1.176977
    potential(screened) =   -2.533447
       potential(ionic) =   -8.057990

   izeta = 2
                 rmatch =    2.905100
              splitnorm =    0.150000
                 energy =   -1.158343
                kinetic =    1.813009
    potential(screened) =   -2.971352
       potential(ionic) =   -8.901931

SPLIT: Orbitals with angular momentum L= 1

SPLIT: Basis orbitals for state 2p

SPLIT: PAO cut-off radius determined from an
SPLIT: energy shift=  0.007350 Ry

   izeta = 1
                 lambda =    1.000000
                     rc =    4.972977
                 energy =   -0.513884
                kinetic =    3.441732
    potential(screened) =   -3.955616
       potential(ionic) =   -9.287901

   izeta = 2
                 rmatch =    3.054066
              splitnorm =    0.150000
                 energy =   -0.318226
                kinetic =    5.125348
    potential(screened) =   -5.443573
       potential(ionic) =  -11.380999

POLgen: Perturbative polarization orbital with L=  2

POLgen: Polarization orbital for state 2p

   izeta = 1
                     rc =    4.972977
                 energy =    1.607437
                kinetic =    3.268125
    potential(screened) =   -1.660688
       potential(ionic) =   -5.973652
atom: Total number of Sankey-type orbitals: 13

atm_pop: Valence configuration (for local Pseudopot. screening):
 2s( 2.00)                                                            
 2p( 3.00)                                                            
Vna: chval, zval:    5.00000   5.00000

Vna:  Cut-off radius for the neutral-atom potential:   4.972977
comcore: Pseudo-core radius Rcore=  1.554824

atom: _________________________________________________________________________

prinput: Basis input ----------------------------------------------------------

PAO.BasisType split     

%block ChemicalSpeciesLabel
    1    6 C                       # Species index, atomic number, species label
    2    7 N                       # Species index, atomic number, species label
%endblock ChemicalSpeciesLabel

%block PAO.Basis                 # Define Basis set
C                     2                    # Species label, number of l-shells
 n=2   0   2                         # n, l, Nzeta 
   4.633      3.432   
   1.000      1.000   
 n=2   1   2 P   1                   # n, l, Nzeta, Polarization, NzetaPol
   5.659      3.653   
   1.000      1.000   
N                     2                    # Species label, number of l-shells
 n=2   0   2                         # n, l, Nzeta 
   4.071      2.905   
   1.000      1.000   
 n=2   1   2 P   1                   # n, l, Nzeta, Polarization, NzetaPol
   4.973      3.054   
   1.000      1.000   
%endblock PAO.Basis

prinput: ----------------------------------------------------------------------

coor:   Atomic-coordinates input format  =     Cartesian coordinates
coor:                                          (in Angstroms)

siesta: Atomic coordinates (Bohr) and species
siesta:      2.23554   1.32097   0.00000  1        1
siesta:     32.50328  21.48508   0.00000  1        2
siesta:     34.83141  22.82873   0.00000  1        3
siesta:     34.83116  17.45226   0.00000  1        4
siesta:     32.50291  13.41944   0.00000  1        5
siesta:     34.83104  14.76308   0.00000  1        6
siesta:     30.17465   9.38661   0.00000  1        7
siesta:     32.50278  10.73026   0.00000  1        8
siesta:     27.84639   5.35379   0.00000  1        9
siesta:     30.17453   6.69743   0.00000  1       10
siesta:     27.84714  21.48508   0.00000  1       11
siesta:     30.17527  22.82873   0.00000  1       12
siesta:      6.89168   1.32097   0.00000  1       13
siesta:      9.21981   2.66461   0.00000  1       14
siesta:     13.87595   2.66461   0.00000  1       15
siesta:     16.20396   1.32097   0.00000  1       16
siesta:     18.53210   2.66461   0.00000  1       17
siesta:     23.19013   2.66461   0.00000  1       18
siesta:     25.51813   1.32097   0.00000  1       19
siesta:     27.84627   2.66461   0.00000  1       20
siesta:      4.56380   5.35379   0.00000  1       21
siesta:      6.89193   6.69743   0.00000  1       22
siesta:      9.21994   5.35379   0.00000  1       23
siesta:     11.54807   6.69743   0.00000  1       24
siesta:     13.87608   5.35379   0.00000  1       25
siesta:     16.20421   6.69743   0.00000  1       26
siesta:     18.53411   5.35379   0.00000  1       27
siesta:     20.86224   6.69743   0.00000  1       28
siesta:     23.19025   5.35379   0.00000  1       29
siesta:     25.51838   6.69743   0.00000  1       30
siesta:      9.22019  10.73026   0.00000  1       31
siesta:     11.54820   9.38661   0.00000  1       32
siesta:     13.87633  10.73026   0.00000  1       33
siesta:     18.53247  10.73026   0.00000  1       34
siesta:     20.86237   9.38661   0.00000  1       35
siesta:     23.19050  10.73026   0.00000  1       36
siesta:      9.22031  13.41944   0.00000  1       37
siesta:     11.54845  14.76308   0.00000  1       38
siesta:     13.87645  13.41944   0.00000  1       39
siesta:     16.20459  14.76308   0.00000  1       40
siesta:     18.53448  13.41944   0.00000  1       41
siesta:     20.86262  14.76308   0.00000  1       42
siesta:     13.87670  18.79590   0.00000  1       43
siesta:     16.20471  17.45226   0.00000  1       44
siesta:     18.53284  18.79590   0.00000  1       45
siesta:     13.87683  21.48508   0.00000  1       46
siesta:     16.20496  22.82873   0.00000  1       47
siesta:     18.53486  21.48508   0.00000  1       48
siesta:     20.86299  22.82873   0.00000  1       49
siesta:     27.84664  10.73026   0.00000  1       50
siesta:     23.19063  13.41944   0.00000  1       51
siesta:     25.51876  14.76308   0.00000  1       52
siesta:     23.19088  18.79590   0.00000  1       53
siesta:     27.84677  13.41944   0.00000  1       54
siesta:     30.17490  14.76308   0.00000  1       55
siesta:     25.51888  17.45226   0.00000  1       56
siesta:     27.84702  18.79590   0.00000  1       57
siesta:     23.19100  21.48508   0.00000  1       58
siesta:     25.51913  22.82873   0.00000  1       59
siesta:     30.17503  17.45226   0.00000  1       60
siesta:     32.50316  18.79590   0.00000  1       61
siesta:     37.16131  21.48508   0.00000  1       62
siesta:     39.48945  22.82873   0.00000  1       63
siesta:      4.56367   2.66461   0.00000  2       64
siesta:     37.15930  18.79590   0.00000  2       65
siesta:     11.54782   1.32097   0.00000  2       66
siesta:     20.86199   1.32097   0.00000  2       67
siesta:      6.89205   9.38661   0.00000  2       68
siesta:     16.20434   9.38661   0.00000  2       69
siesta:     11.54857  17.45226   0.00000  2       70
siesta:     25.51851   9.38661   0.00000  2       71
siesta:     20.86274  17.45226   0.00000  2       72

siesta: System type = slab      

initatomlists: Number of atoms, orbitals, and projectors:     72   936  1152

siesta: ******************** Simulation parameters ****************************
siesta:
siesta: The following are some of the parameters of the simulation.
siesta: A complete list of the parameters used, including default values,
siesta: can be found in file out.fdf
siesta:
redata: Non-Collinear-spin run           =     F
redata: SpinPolarized (Up/Down) run      =     F
redata: Number of spin components        =     1
redata: Long output                      =     F
redata: Number of Atomic Species         =        2
redata: Charge density info will appear in .RHO file
redata: Write Mulliken Pop.              =     NO
redata: Mesh Cutoff                      =   200.0000  Ry
redata: Net charge of the system         =     0.0000 |e|
redata: Max. number of SCF Iter          =      500
redata: SCF convergence failure will abort job
redata: Performing Pulay mixing using    =    10 iterations
redata: Mix DM in first SCF step ?       =     F
redata: Write Pulay info on disk?        =     F
redata: Discard 1st Pulay DM after  kick =     F
redata: New DM Mixing Weight             =     0.0500
redata: New DM Occupancy tolerance       = 0.000000000001
redata: No kicks to SCF
redata: DM Mixing Weight for Kicks       =     0.5000
redata: DM Tolerance for SCF             =     0.000100
redata: Require Energy convergence for SCF =     F
redata: DM Energy tolerance for SCF      =     0.000100 eV
redata: Require Harris convergence for SCF =     F
redata: DM Harris energy tolerance for SCF =     0.000100 eV
redata: Using Saved Data (generic)   =     F
redata: Use continuation files for DM    =     T
redata: Neglect nonoverlap interactions  =     F
redata: Method of Calculation            =     Diagonalization
redata: Divide and Conquer               =     T
redata: Electronic Temperature           =     0.0019  Ry
redata: Fix the spin of the system       =     F
redata: Dynamics option                  =     Verlet MD run
redata: Initial MD time step             =        1
redata:   Final MD time step             =        1
redata: Length of MD time step           =     1.0000  fs
redata: Initial Temperature of MD run    =     0.0000  K
redata: Perform a MD quench              =     F
redata: ***********************************************************************
Total number of electrons:   297.000000
Total ionic charge:   297.000000

* ProcessorY, Blocksize:    2  24

k-point displ. along   1 input, could be:     0.00    0.50
k-point displ. along   2 input, could be:     0.00    0.50
 Kpoints in:          364 . Kpoints trimmed:          352

siesta: k-grid: Number of k-points =   352
siesta: k-grid: Cutoff (effective) =     5.000 Ang
siesta: k-grid: Supercell and displacements
siesta: k-grid:   26   0   0      0.000
siesta: k-grid:    0  26   0      0.000
siesta: k-grid:    0   0   1      0.000
Naive supercell factors:     2    2    2

superc: Internal auxiliary supercell:     2 x     2 x     2  =       8
superc: Number of atoms, orbitals, and projectors:    576   7488   9216

* Maximum dynamic memory allocated =     6 MB

siesta:                 ==============================
                            Begin MD step =      1
                        ==============================

superc: Internal auxiliary supercell:     2 x     2 x     2  =       8
superc: Number of atoms, orbitals, and projectors:    576   7488   9216

outcell: Unit cell vectors (Ang):
       14.785000    0.000000    0.000000
        7.393000   12.805052    0.000000
        0.000000    0.000000   10.000000

outcell: Cell vector modules (Ang)   :   14.785000   14.786000   10.000000
outcell: Cell angles (23,13,12) (deg):     90.0000     90.0000     60.0000
outcell: Cell volume (Ang**3)        :   1893.2269
New_DM. Step:     1
Initializing Density Matrix...

iodm: Reading Density Matrix from files
 Read DM has different structure. Fixing...

InitMesh: MESH =   120 x   120 x    90 =     1296000
InitMesh: Mesh cutoff (required, used) =   200.000   223.865 Ry

* Maximum dynamic memory allocated =   188 MB

stepf: Fermi-Dirac step function

siesta: Program's energy decomposition (eV):
siesta: Ebs     =     -4398.143041
siesta: Eions   =     19849.732669
siesta: Ena     =      4064.291283
siesta: Ekin    =      8469.685687
siesta: Enl     =      -987.287645
siesta: DEna    =      -305.714474
siesta: DUscf   =       184.187841
siesta: DUext   =         0.000000
siesta: Exc     =     -4275.176916
siesta: eta*DQ  =         0.000000
siesta: Emadel  =         0.000000
siesta: Emeta   =         0.000000
siesta: Emolmec =         0.000000
siesta: Ekinion =         0.000000
siesta: Eharris =    -13222.872312
siesta: Etot    =    -12699.746891
siesta: FreeEng =    -12699.746891

siesta: iscf   Eharris(eV)      E_KS(eV)   FreeEng(eV)   dDmax  Ef(eV)
siesta:    1   -13222.8723   -12699.7469   -12699.7469  3.4374 -3.0202
timer: Routine,Calls,Time,% = IterSCF        1    6637.862  99.83
elaps: Routine,Calls,Wall,% = IterSCF        1     830.706  99.83
siesta:    2   -28653.8393    -9894.8540    -9894.8827130.3809-20.3945
siesta:    3   -12977.1662   -12717.2659   -12717.3018  0.8087 -2.9737
siesta:    4   -12906.1574   -12727.5552   -12727.5874  0.6386 -3.0542
siesta:    5   -12782.0695   -12741.4589   -12741.4928  0.7079 -2.9642
siesta:    6   -12757.5570   -12742.0857   -12742.1181  0.6810 -2.9772
siesta:    7   -12742.7511   -12738.2151   -12738.2496  0.4484 -3.0222
siesta:    8   -12740.8919   -12738.3463   -12738.3832  0.4891 -3.1333
siesta:    9   -12742.3219   -12737.6633   -12737.6982  0.2861 -3.3972
siesta:   10   -12741.5273   -12737.4405   -12737.4754  0.0969 -3.5101
siesta:   11   -12739.8560   -12737.8000   -12737.8289  0.1411 -3.5645
siesta:   12   -12739.2351   -12737.9862   -12738.0148  0.0967 -3.5489
siesta:   13   -12739.2039   -12738.0296   -12738.0643  0.0897 -3.5274
siesta:   14   -12739.1368   -12738.1251   -12738.1611  0.0590 -3.4839
siesta:   15   -12739.1294   -12738.2348   -12738.2701  0.0265 -3.4507
siesta:   16   -12739.1058   -12738.4600   -12738.4957  0.0108 -3.4379
siesta:   17   -12739.0919   -12738.7633   -12738.7983  0.0063 -3.4325
siesta:   18   -12739.0822   -12738.8398   -12738.8746  0.0061 -3.4276
siesta:   19   -12739.0808   -12738.8474   -12738.8823  0.0053 -3.4246
siesta:   20   -12739.0805   -12738.9402   -12738.9753  0.0021 -3.4243
siesta:   21   -12739.0804   -12738.9839   -12739.0189  0.0017 -3.4252
siesta:   22   -12739.0803   -12739.0369   -12739.0720  0.0015 -3.4266
siesta:   23   -12739.0801   -12739.0605   -12739.0956  0.0004 -3.4283
siesta:   24   -12739.0801   -12739.0631   -12739.0981  0.0004 -3.4284
siesta:   25   -12739.0801   -12739.0673   -12739.1023  0.0003 -3.4284
siesta:   26   -12739.0801   -12739.0713   -12739.1064  0.0003 -3.4282
siesta:   27   -12739.0801   -12739.0730   -12739.1081  0.0003 -3.4282
siesta:   28   -12739.0801   -12739.0753   -12739.1103  0.0002 -3.4282
siesta:   29   -12739.0801   -12739.0771   -12739.1122  0.0001 -3.4281

siesta: E_KS(eV) =           -12739.0778

siesta: E_KS - E_eggbox =    -12739.0778

siesta: Atomic forces (eV/Ang):
----------------------------------------
   Tot    0.231588   -0.264040    0.000000
----------------------------------------
   Max    1.308615
   Res    0.331470    sqrt( Sum f_i^2 / 3N )
----------------------------------------
   Max    1.308615    constrained

Stress-tensor-Voigt (kbar):       -0.82        0.59        0.14       -0.53        0.00        0.00
(Free)E + p*V (eV/cell)   -12739.0789
Target enthalpy (eV/cell)   -12739.1129

siesta: Stress tensor (static) (eV/Ang**3):
        -0.000511   -0.000333    0.000000
        -0.000333    0.000368    0.000000
         0.000000    0.000000    0.000089

siesta: Pressure (static):          0.02875597  kBar

siesta: Stress tensor (total) (eV/Ang**3):
        -0.000511   -0.000333    0.000000
        -0.000333    0.000368    0.000000
         0.000000    0.000000    0.000089

siesta: Pressure (total):          0.02875597  kBar

siesta: Temp_ion =       0.000 K

* Maximum dynamic memory allocated =   204 MB

siesta: Program's energy decomposition (eV):
siesta: Ebs     =     -4185.054197
siesta: Eions   =     19849.732669
siesta: Ena     =      4064.291283
siesta: Ekin    =      8580.310597
siesta: Enl     =     -1058.640939
siesta: DEna    =      -247.611903
siesta: DUscf   =        22.707153
siesta: DUext   =         0.000000
siesta: Exc     =     -4250.401351
siesta: eta*DQ  =         0.000000
siesta: Emadel  =         0.000000
siesta: Emeta   =         0.000000
siesta: Emolmec =         0.000000
siesta: Ekinion =         0.000000
siesta: Eharris =    -12739.080056
siesta: Etot    =    -12739.077829
siesta: FreeEng =    -12739.112879

siesta: Final energy (eV):
siesta:  Band Struct. =   -4185.054197
siesta:       Kinetic =    8580.310597
siesta:       Hartree =   24802.865293
siesta:    Ext. field =       0.000000
siesta:   Exch.-corr. =   -4250.401351
siesta:  Ion-electron =  -57582.276867
siesta:       Ion-ion =   15710.424499
siesta:       Ekinion =       0.000000
siesta:         Total =  -12739.077829

siesta: Atomic forces (eV/Ang):
siesta:      1    0.373432    0.076037    0.000000
siesta:      2   -0.899873    0.682489    0.000000
siesta:      3    0.875982    0.198130    0.000000
siesta:      4    0.687424   -0.875176    0.000000
siesta:      5    0.446786   -0.213347    0.000000
siesta:      6   -0.391879    1.308615    0.000000
siesta:      7    0.079890    0.193210    0.000000
siesta:      8    0.334593   -0.078448    0.000000
siesta:      9   -0.352159    0.861502    0.000000
siesta:     10    0.319751   -1.004439    0.000000
siesta:     11   -0.098917    0.572639    0.000000
siesta:     12    0.535219   -0.759709    0.000000
siesta:     13    0.132096   -0.165980    0.000000
siesta:     14   -0.175156   -0.316447    0.000000
siesta:     15   -0.203214   -0.402468    0.000000
siesta:     16   -0.006972    0.286183    0.000000
siesta:     17    0.094142   -0.426724    0.000000
siesta:     18   -0.242811   -0.150316    0.000000
siesta:     19   -0.671008   -0.624968    0.000000
siesta:     20    0.443566    0.071379    0.000000
siesta:     21   -0.054134    0.223793    0.000000
siesta:     22   -0.383490   -0.052836    0.000000
siesta:     23    0.664131    0.375338    0.000000
siesta:     24   -0.477251   -0.138983    0.000000
siesta:     25    0.064279    0.258772    0.000000
siesta:     26   -0.156896    0.029829    0.000000
siesta:     27    0.295173    0.312861    0.000000
siesta:     28    0.011112   -0.056750    0.000000
siesta:     29   -0.389019    0.079775    0.000000
siesta:     30    0.458228    0.345475    0.000000
siesta:     31   -0.574035    0.224943    0.000000
siesta:     32    0.345765   -0.299963    0.000000
siesta:     33   -0.145790   -0.096275    0.000000
siesta:     34    0.001072   -0.105716    0.000000
siesta:     35   -0.245059   -0.256176    0.000000
siesta:     36    0.479523    0.058811    0.000000
siesta:     37    0.670050   -0.459738    0.000000
siesta:     38   -0.816811    0.236094    0.000000
siesta:     39    0.342813    0.171847    0.000000
siesta:     40    0.123105   -0.053072    0.000000
siesta:     41   -0.465848    0.062835    0.000000
siesta:     42    0.296698    0.330242    0.000000
siesta:     43   -0.492980    0.326493    0.000000
siesta:     44   -0.310938   -0.364491    0.000000
siesta:     45    0.494267    0.268030    0.000000
siesta:     46   -0.368808   -0.383941    0.000000
siesta:     47    0.188670    0.411078    0.000000
siesta:     48    0.679996   -0.672772    0.000000
siesta:     49   -0.818432    0.784090    0.000000
siesta:     50   -0.265459   -0.399061    0.000000
siesta:     51   -0.197727   -0.126463    0.000000
siesta:     52    0.498908    0.288261    0.000000
siesta:     53   -0.526266    0.032592    0.000000
siesta:     54   -0.589769   -0.165934    0.000000
siesta:     55   -0.025841   -0.243762    0.000000
siesta:     56   -0.357473   -0.492416    0.000000
siesta:     57   -0.208538    0.181326    0.000000
siesta:     58    0.227245   -0.092185    0.000000
siesta:     59    0.082044    0.409668    0.000000
siesta:     60    0.057170   -0.241452    0.000000
siesta:     61    0.762699    0.195307    0.000000
siesta:     62   -0.231065   -0.167090    0.000000
siesta:     63   -0.012876   -0.093104    0.000000
siesta:     64    0.164674    0.071080    0.000000
siesta:     65   -0.676167    0.638905    0.000000
siesta:     66   -0.008581   -0.009759    0.000000
siesta:     67    0.099738   -0.123828    0.000000
siesta:     68    0.135880   -0.034718    0.000000
siesta:     69    0.108643    0.035004    0.000000
siesta:     70    0.773839   -0.528634    0.000000
siesta:     71   -0.186306   -0.002078    0.000000
siesta:     72   -0.089469   -0.187454    0.000000
siesta: ----------------------------------------
siesta:    Tot    0.231588   -0.264040    0.000000

siesta: Stress tensor (static) (eV/Ang**3):
siesta:    -0.000511   -0.000333    0.000000
siesta:    -0.000333    0.000368    0.000000
siesta:     0.000000    0.000000    0.000089

siesta: Cell volume =       1893.226895 Ang**3

siesta: Pressure (static):
siesta:                Solid            Molecule  Units
siesta:           0.00000020         -0.00001835  Ry/Bohr**3
siesta:           0.00001795         -0.00168525  eV/Ang**3
siesta:           0.02875597         -2.70010396  kBar
(Free)E+ p_basis*V_orbitals  =      -12709.661933
(Free)Eharris+ p_basis*V_orbitals  =      -12709.664871

siesta: Electric dipole (a.u.)  =    0.000000    0.000000    0.000000
siesta: Electric dipole (Debye) =    0.000000    0.000000    0.000000

* Maximum dynamic memory allocated : Node    0 =   204 MB
* Maximum dynamic memory allocated : Node    1 =    74 MB
* Maximum dynamic memory allocated : Node    2 =    76 MB
* Maximum dynamic memory allocated : Node    3 =   193 MB
* Maximum dynamic memory allocated : Node    4 =   202 MB
* Maximum dynamic memory allocated : Node    5 =    74 MB
* Maximum dynamic memory allocated : Node    6 =    76 MB
* Maximum dynamic memory allocated : Node    7 =   187 MB

* Maximum memory occured during matrixMtoO                    

timer: CPU execution times:
timer:  Routine       Calls   Time/call    Tot.time        %
timer:  siesta            1  190800.196  190800.196   100.00
timer:  Setup             1       3.044       3.044     0.00
timer:  bands             1       0.009       0.009     0.00
timer:  writewave         1       0.017       0.017     0.00
timer:  KSV_init          1       0.000       0.000     0.00
timer:  IterMD            1  190788.999  190788.999    99.99
timer:  hsparse           1       0.255       0.255     0.00
timer:  overlap           1       6.343       6.343     0.00
timer:  IterSCF          29    6573.241  190623.985    99.91
timer:  kinefsm           2       3.260       6.520     0.00
timer:  nlefsm            2      18.858      37.715     0.02
timer:  DHSCF            30      87.825    2634.761     1.38
timer:  DHSCF1            1       0.755       0.755     0.00
timer:  DHSCF2            1      33.418      33.418     0.02
timer:  REORD           242       0.010       2.400     0.00
timer:  POISON           31       2.242      69.512     0.04
timer:  DHSCF3           30      85.607    2568.207     1.35
timer:  rhoofd           30      16.184     485.518     0.25
timer:  cellXC           30       3.576     107.276     0.06
timer:  vmat             30      43.595    1307.839     0.69
timer:  MolMec            2       0.001       0.002     0.00
timer:  diagon           29    6484.034  188036.981    98.55
timer:  c-eigval      10208       6.685   68237.977    35.76
timer:  c-buildHS     10208       0.117    1198.752     0.63
timer:  cdiag         20416       6.867  140190.270    73.47
timer:  cdiag1        20416       0.427    8711.076     4.57
timer:  cdiag2        20416       1.907   38932.419    20.40
timer:  cdiag3        20416       3.957   80790.788    42.34
timer:  cdiag4        20416       0.204    4161.916     2.18
timer:  c-eigvec      10208       7.238   73884.307    38.72
timer:  c-buildD      10208       4.490   45829.168    24.02
timer:  DHSCF4            1      30.777      30.777     0.02
timer:  dfscf             1      28.949      28.949     0.02
timer:  overfsm           1       0.371       0.371     0.00
timer:  optical           1       7.133       7.133     0.00
  

elaps: ELAPSED times:
elaps:  Routine       Calls   Time/call    Tot.time        %
elaps:  siesta            1   23876.892   23876.892   100.00
elaps:  Setup             1       0.379       0.379     0.00
elaps:  bands             1       0.001       0.001     0.00
elaps:  writewave         1       0.002       0.002     0.00
elaps:  KSV_init          1       0.000       0.000     0.00
elaps:  IterMD            1   23875.493   23875.493    99.99
elaps:  hsparse           1       0.032       0.032     0.00
elaps:  overlap           1       0.524       0.524     0.00
elaps:  IterSCF          29     822.581   23854.851    99.91
elaps:  kinefsm           2       0.275       0.549     0.00
elaps:  nlefsm            2       2.492       4.984     0.02
elaps:  DHSCF            30      11.094     332.827     1.39
elaps:  DHSCF1            1       0.097       0.097     0.00
elaps:  DHSCF2            1       4.178       4.178     0.02
elaps:  REORD           242       0.001       0.322     0.00
elaps:  POISON           31       0.281       8.697     0.04
elaps:  DHSCF3           30      10.710     321.297     1.35
elaps:  rhoofd           30       3.530     105.904     0.44
elaps:  cellXC           30       0.446      13.394     0.06
elaps:  vmat             30       5.453     163.602     0.69
elaps:  MolMec            2       0.000       0.000     0.00
elaps:  diagon           29     811.443   23531.858    98.55
elaps:  c-eigval      10208       0.836    8537.570    35.76
elaps:  c-buildHS     10208       0.016     165.096     0.69
elaps:  cdiag         20416       0.846   17273.401    72.34
elaps:  cdiag1        20416       0.053    1073.489     4.50
elaps:  cdiag2        20416       0.239    4871.290    20.40
elaps:  cdiag3        20416       0.496   10122.102    42.39
elaps:  cdiag4        20416       0.026     529.751     2.22
elaps:  c-eigvec      10208       0.883    9015.535    37.76
elaps:  c-buildD      10208       0.584    5966.184    24.99
elaps:  DHSCF4            1       7.039       7.039     0.03
elaps:  dfscf             1       6.662       6.662     0.03
elaps:  overfsm           1       0.048       0.048     0.00
elaps:  optical           1       0.000       0.000     0.00
  
>> End of run:  29-NOV-2015  21:03:27
