Siesta Version:                                        siesta-3.2-pl-3
Architecture  : x86_64-unknown-linux-gnu--unknown
Compiler flags: mpiifort -g -O2 -fPIC -xSSE4.1 -fp-model source -shared-intel 
PARALLEL version

* Running on    8 nodes in parallel
>> Start of run:  28-NOV-2015   8:00:04

                           ***********************       
                           *  WELCOME TO SIESTA  *       
                           ***********************       

reinit: Reading from standard input
************************** Dump of input data file ****************************
#(1) General system descriptors
SystemName            GRP_doping    # Descriptive name of the system
SystemLabel           GRP_doping    # Short name for naming files
%include STRUCT.fdf
%include KPT.fdf
%include BASIS.fdf
#%include TS.fdf # for transiesta calculation
#(4) DFT, Grid, SCF
XC.functional         GGA           # LDA or GGA (default = LDA)
XC.authors            PBE           # CA (Ceperley-Aldr) = PZ
                                    #    (Perdew-Zunger) - LDA - Default
                                    # PW92 (Perdew-Wang-92) - LDA
                                    # PBE (Perdew-Burke-Ernzerhof) - GGA
MeshCutoff            200.000000    Ry      # Default: 50.0 Ry ~ 0.444 Bohr
                                    #         100.0 Ry ~ 0.314 Bohr
MaxSCFIterations      500           # Default: 50
DM.MixingWeight       0.05          # Default: 0.25
DM.NumberPulay        10            # Default: 0
DM.PulayOnFile        F             # SystemLabel.P1, SystemLabel.P2
DM.Tolerance          1.d-4         # Default: 1.d-4
DM.UseSaveDM          .true.        # because of the bug
SCFMustConverge       .true.
NeglNonOverlapInt     F             # Default: F
#(5) Eigenvalue problem: order-N or diagonalization
SolutionMethod        Diagon        # or Transiesta
ElectronicTemperature 300.0 K       # Default: 300.0 K
#(6) Molecular dynamics and relaxations
#MD.TypeOfRun          CG            # Type of dynamics:
#MD.VariableCell       F
#MD.NumCGsteps         0           # 0 for single-point / 100 for gopt
#MD.MaxCGDispl         0.2 Bohr      # Default: 0.2 Bohr
#MD.MaxForceTol        0.02 eV/Ang   # Default: 0.04 eV/Ang
#MD.MaxStressTol       1.0 GPa       # Default: 1.0 GPa
# Geometry Constraints
#%block GeometryConstraints
#	position from 1 to 44
#%endblock GeometryConstraints
************************** End of input data file *****************************

reinit: -----------------------------------------------------------------------
reinit: System Name: GRP_doping
reinit: -----------------------------------------------------------------------
reinit: System Label: GRP_doping                                                  
reinit: -----------------------------------------------------------------------

initatom: Reading input for the pseudopotentials and atomic orbitals ----------
 Species number:            1  Label: C Atomic number:           6
 Species number:            2  Label: B Atomic number:           5
Ground state valence configuration:   2s02  2p02
Reading pseudopotential information in formatted form from C.psf

Valence configuration for pseudopotential generation:
2s( 2.00) rc: 1.54
2p( 2.00) rc: 1.54
3d( 0.00) rc: 1.54
4f( 0.00) rc: 1.54
Ground state valence configuration:   2s02  2p01
Reading pseudopotential information in formatted form from B.psf

Valence configuration for pseudopotential generation:
2s( 2.00) rc: 1.74
2p( 1.00) rc: 1.74
3d( 0.00) rc: 1.74
4f( 0.00) rc: 1.74
For C, standard SIESTA heuristics set lmxkb to 3
 (one more than the basis l, including polarization orbitals).
Use PS.lmax or PS.KBprojectors blocks to override.
For B, standard SIESTA heuristics set lmxkb to 3
 (one more than the basis l, including polarization orbitals).
Use PS.lmax or PS.KBprojectors blocks to override.

<basis_specs>
===============================================================================
C                    Z=   6    Mass=  12.010        Charge= 0.17977+309
Lmxo=1 Lmxkb= 3    BasisType=split      Semic=F
L=0  Nsemic=0  Cnfigmx=2
          n=1  nzeta=2  polorb=0
            splnorm:   0.15000    
               vcte:    0.0000    
               rinn:    0.0000    
                rcs:    0.0000      0.0000    
            lambdas:    1.0000      1.0000    
L=1  Nsemic=0  Cnfigmx=2
          n=1  nzeta=2  polorb=1
            splnorm:   0.15000    
               vcte:    0.0000    
               rinn:    0.0000    
                rcs:    0.0000      0.0000    
            lambdas:    1.0000      1.0000    
-------------------------------------------------------------------------------
L=0  Nkbl=1  erefs: 0.17977+309
L=1  Nkbl=1  erefs: 0.17977+309
L=2  Nkbl=1  erefs: 0.17977+309
L=3  Nkbl=1  erefs: 0.17977+309
===============================================================================
</basis_specs>

atom: Called for C                     (Z =   6)

read_vps: Pseudopotential generation method:
read_vps: ATM3      Troullier-Martins                       
Total valence charge:    4.00000

read_vps: Pseudopotential includes a core correction:
read_vps: Pseudo-core for xc-correction

xc_check: Exchange-correlation functional:
xc_check: GGA Perdew, Burke & Ernzerhof 1996
V l=0 = -2*Zval/r beyond r=  1.5227
V l=1 = -2*Zval/r beyond r=  1.5227
V l=2 = -2*Zval/r beyond r=  1.5227
V l=3 = -2*Zval/r beyond r=  1.5038
All V_l potentials equal beyond r=  1.5227
This should be close to max(r_c) in ps generation
All pots = -2*Zval/r beyond r=  1.5227

VLOCAL1: 99.0% of the norm of Vloc inside     18.722 Ry
VLOCAL1: 99.9% of the norm of Vloc inside     42.668 Ry
atom: Maximum radius for 4*pi*r*r*local-pseudopot. charge    1.83678
atom: Maximum radius for r*vlocal+2*Zval:    1.58088
GHOST: No ghost state for L =  0
GHOST: No ghost state for L =  1
GHOST: No ghost state for L =  2
GHOST: No ghost state for L =  3

KBgen: Kleinman-Bylander projectors: 
   l= 0   rc=  1.704034   el= -1.009801   Ekb=  5.335044   kbcos=  0.316824
   l= 1   rc=  1.704034   el= -0.388707   Ekb= -3.785862   kbcos= -0.366464
   l= 2   rc=  1.791422   el=  0.001971   Ekb= -0.970471   kbcos= -0.009212
   l= 3   rc=  1.859892   el=  0.003065   Ekb= -0.399525   kbcos= -0.001223

KBgen: Total number of  Kleinman-Bylander projectors:   16
atom: -------------------------------------------------------------------------

atom: SANKEY-TYPE ORBITALS:
atom: Selected multiple-zeta basis: split     

SPLIT: Orbitals with angular momentum L= 0

SPLIT: Basis orbitals for state 2s

SPLIT: PAO cut-off radius determined from an
SPLIT: energy shift=  0.007350 Ry

   izeta = 1
                 lambda =    1.000000
                     rc =    4.632753
                 energy =   -1.002270
                kinetic =    0.855760
    potential(screened) =   -1.858031
       potential(ionic) =   -5.417575

   izeta = 2
                 rmatch =    3.431921
              splitnorm =    0.150000
                 energy =   -0.867111
                kinetic =    1.300804
    potential(screened) =   -2.167915
       potential(ionic) =   -5.962684

SPLIT: Orbitals with angular momentum L= 1

SPLIT: Basis orbitals for state 2p

SPLIT: PAO cut-off radius determined from an
SPLIT: energy shift=  0.007350 Ry

   izeta = 1
                 lambda =    1.000000
                     rc =    5.658549
                 energy =   -0.381140
                kinetic =    2.399701
    potential(screened) =   -2.780841
       potential(ionic) =   -6.206085

   izeta = 2
                 rmatch =    3.653288
              splitnorm =    0.150000
                 energy =   -0.249149
                kinetic =    3.542762
    potential(screened) =   -3.791911
       potential(ionic) =   -7.581078

POLgen: Perturbative polarization orbital with L=  2

POLgen: Polarization orbital for state 2p

   izeta = 1
                     rc =    5.658549
                 energy =    1.109913
                kinetic =    2.304789
    potential(screened) =   -1.194876
       potential(ionic) =   -4.013592
atom: Total number of Sankey-type orbitals: 13

atm_pop: Valence configuration (for local Pseudopot. screening):
 2s( 2.00)                                                            
 2p( 2.00)                                                            
Vna: chval, zval:    4.00000   4.00000

Vna:  Cut-off radius for the neutral-atom potential:   5.658549
comcore: Pseudo-core radius Rcore=  1.791422

atom: _________________________________________________________________________

<basis_specs>
===============================================================================
B                    Z=   5    Mass=  10.810        Charge= 0.17977+309
Lmxo=1 Lmxkb= 3    BasisType=split      Semic=F
L=0  Nsemic=0  Cnfigmx=2
          n=1  nzeta=2  polorb=0
            splnorm:   0.15000    
               vcte:    0.0000    
               rinn:    0.0000    
                rcs:    0.0000      0.0000    
            lambdas:    1.0000      1.0000    
L=1  Nsemic=0  Cnfigmx=2
          n=1  nzeta=2  polorb=1
            splnorm:   0.15000    
               vcte:    0.0000    
               rinn:    0.0000    
                rcs:    0.0000      0.0000    
            lambdas:    1.0000      1.0000    
-------------------------------------------------------------------------------
L=0  Nkbl=1  erefs: 0.17977+309
L=1  Nkbl=1  erefs: 0.17977+309
L=2  Nkbl=1  erefs: 0.17977+309
L=3  Nkbl=1  erefs: 0.17977+309
===============================================================================
</basis_specs>

atom: Called for B                     (Z =   5)

read_vps: Pseudopotential generation method:
read_vps: ATM3      Troullier-Martins                       
Total valence charge:    3.00000

read_vps: Pseudopotential includes a core correction:
read_vps: Pseudo-core for xc-correction

xc_check: Exchange-correlation functional:
xc_check: GGA Perdew, Burke & Ernzerhof 1996
V l=0 = -2*Zval/r beyond r=  1.7165
V l=1 = -2*Zval/r beyond r=  1.7165
V l=2 = -2*Zval/r beyond r=  1.7165
V l=3 = -2*Zval/r beyond r=  1.6951
All V_l potentials equal beyond r=  1.7165
This should be close to max(r_c) in ps generation
All pots = -2*Zval/r beyond r=  1.7165

VLOCAL1: 99.0% of the norm of Vloc inside     14.733 Ry
VLOCAL1: 99.9% of the norm of Vloc inside     33.577 Ry
atom: Maximum radius for 4*pi*r*r*local-pseudopot. charge    2.04484
atom: Maximum radius for r*vlocal+2*Zval:    1.75994
GHOST: No ghost state for L =  0
GHOST: No ghost state for L =  1
GHOST: No ghost state for L =  2
GHOST: No ghost state for L =  3

KBgen: Kleinman-Bylander projectors: 
   l= 0   rc=  1.897051   el= -0.693730   Ekb=  4.595746   kbcos=  0.286105
   l= 1   rc=  1.920920   el= -0.265236   Ekb= -2.350715   kbcos= -0.315747
   l= 2   rc=  2.044840   el=  0.002055   Ekb= -0.690767   kbcos= -0.013822
   l= 3   rc=  2.149707   el=  0.003188   Ekb= -0.315358   kbcos= -0.002055

KBgen: Total number of  Kleinman-Bylander projectors:   16
atom: -------------------------------------------------------------------------

atom: SANKEY-TYPE ORBITALS:
atom: Selected multiple-zeta basis: split     

SPLIT: Orbitals with angular momentum L= 0

SPLIT: Basis orbitals for state 2s

SPLIT: PAO cut-off radius determined from an
SPLIT: energy shift=  0.007350 Ry

   izeta = 1
                 lambda =    1.000000
                     rc =    5.422032
                 energy =   -0.686029
                kinetic =    0.576707
    potential(screened) =   -1.262736
       potential(ionic) =   -3.271094

   izeta = 2
                 rmatch =    4.222573
              splitnorm =    0.150000
                 energy =   -0.602132
                kinetic =    0.858975
    potential(screened) =   -1.461107
       potential(ionic) =   -3.582536

SPLIT: Orbitals with angular momentum L= 1

SPLIT: Basis orbitals for state 2p

SPLIT: PAO cut-off radius determined from an
SPLIT: energy shift=  0.007350 Ry

   izeta = 1
                 lambda =    1.000000
                     rc =    6.790259
                 energy =   -0.258578
                kinetic =    1.481412
    potential(screened) =   -1.739989
       potential(ionic) =   -3.657461

   izeta = 2
                 rmatch =    4.608740
              splitnorm =    0.150000
                 energy =   -0.173757
                kinetic =    2.186690
    potential(screened) =   -2.360447
       potential(ionic) =   -4.464260

POLgen: Perturbative polarization orbital with L=  2

POLgen: Polarization orbital for state 2p

   izeta = 1
                     rc =    6.790259
                 energy =    0.684082
                kinetic =    1.471481
    potential(screened) =   -0.787399
       potential(ionic) =   -2.406985
atom: Total number of Sankey-type orbitals: 13

atm_pop: Valence configuration (for local Pseudopot. screening):
 2s( 2.00)                                                            
 2p( 1.00)                                                            
Vna: chval, zval:    3.00000   3.00000

Vna:  Cut-off radius for the neutral-atom potential:   6.790259
comcore: Pseudo-core radius Rcore=  2.122997

atom: _________________________________________________________________________

prinput: Basis input ----------------------------------------------------------

PAO.BasisType split     

%block ChemicalSpeciesLabel
    1    6 C                       # Species index, atomic number, species label
    2    5 B                       # Species index, atomic number, species label
%endblock ChemicalSpeciesLabel

%block PAO.Basis                 # Define Basis set
C                     2                    # Species label, number of l-shells
 n=2   0   2                         # n, l, Nzeta 
   4.633      3.432   
   1.000      1.000   
 n=2   1   2 P   1                   # n, l, Nzeta, Polarization, NzetaPol
   5.659      3.653   
   1.000      1.000   
B                     2                    # Species label, number of l-shells
 n=2   0   2                         # n, l, Nzeta 
   5.422      4.223   
   1.000      1.000   
 n=2   1   2 P   1                   # n, l, Nzeta, Polarization, NzetaPol
   6.790      4.609   
   1.000      1.000   
%endblock PAO.Basis

prinput: ----------------------------------------------------------------------

coor:   Atomic-coordinates input format  =     Cartesian coordinates
coor:                                          (in Angstroms)

siesta: Atomic coordinates (Bohr) and species
siesta:      2.23554   1.32097   0.00000  1        1
siesta:     32.50328  21.48508   0.00000  1        2
siesta:     34.83141  22.82873   0.00000  1        3
siesta:     34.83116  17.45226   0.00000  1        4
siesta:     37.15930  18.79590   0.00000  1        5
siesta:     32.50291  13.41944   0.00000  1        6
siesta:     34.83104  14.76308   0.00000  1        7
siesta:     30.17465   9.38661   0.00000  1        8
siesta:     32.50278  10.73026   0.00000  1        9
siesta:     27.84639   5.35379   0.00000  1       10
siesta:     30.17453   6.69743   0.00000  1       11
siesta:     27.84714  21.48508   0.00000  1       12
siesta:     30.17527  22.82873   0.00000  1       13
siesta:      6.89168   1.32097   0.00000  1       14
siesta:      9.21981   2.66461   0.00000  1       15
siesta:     11.54782   1.32097   0.00000  1       16
siesta:     13.87595   2.66461   0.00000  1       17
siesta:     16.20396   1.32097   0.00000  1       18
siesta:     18.53210   2.66461   0.00000  1       19
siesta:     23.19013   2.66461   0.00000  1       20
siesta:     25.51813   1.32097   0.00000  1       21
siesta:     27.84627   2.66461   0.00000  1       22
siesta:      4.56380   5.35379   0.00000  1       23
siesta:      6.89193   6.69743   0.00000  1       24
siesta:      9.21994   5.35379   0.00000  1       25
siesta:     11.54807   6.69743   0.00000  1       26
siesta:     13.87608   5.35379   0.00000  1       27
siesta:     16.20421   6.69743   0.00000  1       28
siesta:     20.86224   6.69743   0.00000  1       29
siesta:     23.19025   5.35379   0.00000  1       30
siesta:     25.51838   6.69743   0.00000  1       31
siesta:      9.22019  10.73026   0.00000  1       32
siesta:     11.54820   9.38661   0.00000  1       33
siesta:     13.87633  10.73026   0.00000  1       34
siesta:     18.53247  10.73026   0.00000  1       35
siesta:     20.86237   9.38661   0.00000  1       36
siesta:     23.19050  10.73026   0.00000  1       37
siesta:      9.22031  13.41944   0.00000  1       38
siesta:     11.54845  14.76308   0.00000  1       39
siesta:     13.87645  13.41944   0.00000  1       40
siesta:     16.20459  14.76308   0.00000  1       41
siesta:     18.53448  13.41944   0.00000  1       42
siesta:     20.86262  14.76308   0.00000  1       43
siesta:     13.87670  18.79590   0.00000  1       44
siesta:     16.20471  17.45226   0.00000  1       45
siesta:     18.53284  18.79590   0.00000  1       46
siesta:     13.87683  21.48508   0.00000  1       47
siesta:     16.20496  22.82873   0.00000  1       48
siesta:     18.53486  21.48508   0.00000  1       49
siesta:     20.86299  22.82873   0.00000  1       50
siesta:     27.84664  10.73026   0.00000  1       51
siesta:     23.19063  13.41944   0.00000  1       52
siesta:     25.51876  14.76308   0.00000  1       53
siesta:     23.19088  18.79590   0.00000  1       54
siesta:     27.84677  13.41944   0.00000  1       55
siesta:     30.17490  14.76308   0.00000  1       56
siesta:     25.51888  17.45226   0.00000  1       57
siesta:     27.84702  18.79590   0.00000  1       58
siesta:     23.19100  21.48508   0.00000  1       59
siesta:     25.51913  22.82873   0.00000  1       60
siesta:     32.50316  18.79590   0.00000  1       61
siesta:     37.16131  21.48508   0.00000  1       62
siesta:     39.48945  22.82873   0.00000  1       63
siesta:      4.56367   2.66461   0.00000  2       64
siesta:     20.86199   1.32097   0.00000  2       65
siesta:     18.53411   5.35379   0.00000  2       66
siesta:      6.89205   9.38661   0.00000  2       67
siesta:     16.20434   9.38661   0.00000  2       68
siesta:     11.54857  17.45226   0.00000  2       69
siesta:     25.51851   9.38661   0.00000  2       70
siesta:     20.86274  17.45226   0.00000  2       71
siesta:     30.17503  17.45226   0.00000  2       72

siesta: System type = slab      

initatomlists: Number of atoms, orbitals, and projectors:     72   936  1152

siesta: ******************** Simulation parameters ****************************
siesta:
siesta: The following are some of the parameters of the simulation.
siesta: A complete list of the parameters used, including default values,
siesta: can be found in file out.fdf
siesta:
redata: Non-Collinear-spin run           =     F
redata: SpinPolarized (Up/Down) run      =     F
redata: Number of spin components        =     1
redata: Long output                      =     F
redata: Number of Atomic Species         =        2
redata: Charge density info will appear in .RHO file
redata: Write Mulliken Pop.              =     NO
redata: Mesh Cutoff                      =   200.0000  Ry
redata: Net charge of the system         =     0.0000 |e|
redata: Max. number of SCF Iter          =      500
redata: SCF convergence failure will abort job
redata: Performing Pulay mixing using    =    10 iterations
redata: Mix DM in first SCF step ?       =     F
redata: Write Pulay info on disk?        =     F
redata: Discard 1st Pulay DM after  kick =     F
redata: New DM Mixing Weight             =     0.0500
redata: New DM Occupancy tolerance       = 0.000000000001
redata: No kicks to SCF
redata: DM Mixing Weight for Kicks       =     0.5000
redata: DM Tolerance for SCF             =     0.000100
redata: Require Energy convergence for SCF =     F
redata: DM Energy tolerance for SCF      =     0.000100 eV
redata: Require Harris convergence for SCF =     F
redata: DM Harris energy tolerance for SCF =     0.000100 eV
redata: Using Saved Data (generic)   =     F
redata: Use continuation files for DM    =     T
redata: Neglect nonoverlap interactions  =     F
redata: Method of Calculation            =     Diagonalization
redata: Divide and Conquer               =     T
redata: Electronic Temperature           =     0.0019  Ry
redata: Fix the spin of the system       =     F
redata: Dynamics option                  =     Verlet MD run
redata: Initial MD time step             =        1
redata:   Final MD time step             =        1
redata: Length of MD time step           =     1.0000  fs
redata: Initial Temperature of MD run    =     0.0000  K
redata: Perform a MD quench              =     F
redata: ***********************************************************************
Total number of electrons:   279.000000
Total ionic charge:   279.000000

* ProcessorY, Blocksize:    2  24

k-point displ. along   1 input, could be:     0.00    0.50
k-point displ. along   2 input, could be:     0.00    0.50
 Kpoints in:          364 . Kpoints trimmed:          352

siesta: k-grid: Number of k-points =   352
siesta: k-grid: Cutoff (effective) =     5.000 Ang
siesta: k-grid: Supercell and displacements
siesta: k-grid:   26   0   0      0.000
siesta: k-grid:    0  26   0      0.000
siesta: k-grid:    0   0   1      0.000
Naive supercell factors:     2    2    2

superc: Internal auxiliary supercell:     2 x     2 x     2  =       8
superc: Number of atoms, orbitals, and projectors:    576   7488   9216

* Maximum dynamic memory allocated =     6 MB

siesta:                 ==============================
                            Begin MD step =      1
                        ==============================

superc: Internal auxiliary supercell:     2 x     2 x     2  =       8
superc: Number of atoms, orbitals, and projectors:    576   7488   9216

outcell: Unit cell vectors (Ang):
       14.785000    0.000000    0.000000
        7.393000   12.805052    0.000000
        0.000000    0.000000   10.000000

outcell: Cell vector modules (Ang)   :   14.785000   14.786000   10.000000
outcell: Cell angles (23,13,12) (deg):     90.0000     90.0000     60.0000
outcell: Cell volume (Ang**3)        :   1893.2269
New_DM. Step:     1
Initializing Density Matrix...

InitMesh: MESH =   120 x   120 x    90 =     1296000
InitMesh: Mesh cutoff (required, used) =   200.000   223.865 Ry

* Maximum dynamic memory allocated =   207 MB

stepf: Fermi-Dirac step function

siesta: Program's energy decomposition (eV):
siesta: Ebs     =     -4462.481856
siesta: Eions   =     17250.500670
siesta: Ena     =      3769.687984
siesta: Ekin    =      5903.534022
siesta: Enl     =       294.190305
siesta: DEna    =        -0.000010
siesta: DUscf   =         0.000000
siesta: DUext   =         0.000000
siesta: Exc     =     -3961.774121
siesta: eta*DQ  =         0.000000
siesta: Emadel  =         0.000000
siesta: Emeta   =         0.000000
siesta: Emolmec =         0.000000
siesta: Ekinion =         0.000000
siesta: Eharris =    -11173.455562
siesta: Etot    =    -11244.862490
siesta: FreeEng =    -11244.862490

siesta: iscf   Eharris(eV)      E_KS(eV)   FreeEng(eV)   dDmax  Ef(eV)
siesta:    1   -11173.4556   -11244.8625   -11244.8625  1.9099 -8.1208
timer: Routine,Calls,Time,% = IterSCF        1    6735.872  99.83
elaps: Routine,Calls,Wall,% = IterSCF        1     843.383  99.87
siesta:    2   -11201.9542   -11124.8339   -11124.8649  0.8207 -3.7943
siesta:    3   -11154.6904   -11161.2818   -11161.3251  0.5169 -5.2504
siesta:    4   -11151.2151   -11160.3179   -11160.3405  0.4533 -5.4258
siesta:    5   -11147.5029   -11152.9746   -11153.0234  0.3144 -5.5832
siesta:    6   -11145.6126   -11149.1783   -11149.2142  0.2175 -5.7113
siesta:    7   -11148.3931   -11143.9912   -11144.0238  0.0831 -5.8726
siesta:    8   -11146.2949   -11143.0789   -11143.1108  0.0515 -5.8864
siesta:    9   -11145.8375   -11142.5978   -11142.6293  0.0350 -5.8909
siesta:   10   -11145.1873   -11142.8953   -11142.9253  0.0208 -5.9443
siesta:   11   -11145.1128   -11143.0834   -11143.1176  0.0166 -5.9535
siesta:   12   -11145.0740   -11143.4577   -11143.4912  0.0136 -5.9573
siesta:   13   -11145.0579   -11144.0940   -11144.1271  0.0078 -5.9598
siesta:   14   -11145.0570   -11144.2711   -11144.3051  0.0061 -5.9547
siesta:   15   -11145.0568   -11144.7320   -11144.7661  0.0028 -5.9452
siesta:   16   -11145.0557   -11144.9772   -11145.0109  0.0016 -5.9447
siesta:   17   -11145.0553   -11145.0202   -11145.0540  0.0014 -5.9440
siesta:   18   -11145.0551   -11145.0253   -11145.0591  0.0012 -5.9436
siesta:   19   -11145.0551   -11145.0338   -11145.0677  0.0007 -5.9439
siesta:   20   -11145.0551   -11145.0473   -11145.0812  0.0003 -5.9441
siesta:   21   -11145.0551   -11145.0553   -11145.0891  0.0002 -5.9441
siesta:   22   -11145.0551   -11145.0534   -11145.0872  0.0002 -5.9440
siesta:   23   -11145.0551   -11145.0493   -11145.0832  0.0001 -5.9438

siesta: E_KS(eV) =           -11145.0506

siesta: E_KS - E_eggbox =    -11145.0506

siesta: Atomic forces (eV/Ang):
----------------------------------------
   Tot    0.186043   -0.141320    0.000000
----------------------------------------
   Max    3.627392
   Res    1.218089    sqrt( Sum f_i^2 / 3N )
----------------------------------------
   Max    3.627392    constrained

Stress-tensor-Voigt (kbar):     -119.21     -118.11       -0.25       -1.48        0.00        0.00
(Free)E + p*V (eV/cell)   -11051.5072
Target enthalpy (eV/cell)   -11145.0845

siesta: Stress tensor (static) (eV/Ang**3):
        -0.074407   -0.000921    0.000000
        -0.000922   -0.073718    0.000000
         0.000000    0.000000   -0.000157

siesta: Pressure (static):         79.19227350  kBar

siesta: Stress tensor (total) (eV/Ang**3):
        -0.074407   -0.000921    0.000000
        -0.000922   -0.073718    0.000000
         0.000000    0.000000   -0.000157

siesta: Pressure (total):         79.19227350  kBar

siesta: Temp_ion =       0.000 K

* Maximum dynamic memory allocated =   222 MB

siesta: Program's energy decomposition (eV):
siesta: Ebs     =     -3690.853462
siesta: Eions   =     17250.500670
siesta: Ena     =      3769.687984
siesta: Ekin    =      7407.730556
siesta: Enl     =      -692.247236
siesta: DEna    =      -342.370900
siesta: DUscf   =        36.485280
siesta: DUext   =         0.000000
siesta: Exc     =     -4073.835656
siesta: eta*DQ  =         0.000000
siesta: Emadel  =         0.000000
siesta: Emeta   =         0.000000
siesta: Emolmec =         0.000000
siesta: Ekinion =         0.000000
siesta: Eharris =    -11145.055116
siesta: Etot    =    -11145.050642
siesta: FreeEng =    -11145.084484

siesta: Final energy (eV):
siesta:  Band Struct. =   -3690.853462
siesta:       Kinetic =    7407.730556
siesta:       Hartree =   21694.866891
siesta:    Ext. field =       0.000000
siesta:   Exch.-corr. =   -4073.835656
siesta:  Ion-electron =  -50128.860385
siesta:       Ion-ion =   13955.047952
siesta:       Ekinion =       0.000000
siesta:         Total =  -11145.050642

siesta: Atomic forces (eV/Ang):
siesta:      1   -3.252237   -1.819473    0.000000
siesta:      2    1.185758   -0.792151    0.000000
siesta:      3    0.169393   -3.234473    0.000000
siesta:      4    0.085707    0.990346    0.000000
siesta:      5   -2.643656    1.695169    0.000000
siesta:      6   -1.059509   -0.631073    0.000000
siesta:      7    0.105803    0.134038    0.000000
siesta:      8   -0.246827    1.464950    0.000000
siesta:      9   -2.874720    1.573614    0.000000
siesta:     10   -0.526637    0.161155    0.000000
siesta:     11    0.542487   -0.141094    0.000000
siesta:     12   -0.379149   -0.278834    0.000000
siesta:     13   -0.532317    0.254968    0.000000
siesta:     14    3.220369   -2.149413    0.000000
siesta:     15    0.257130   -0.707023    0.000000
siesta:     16    0.258596    0.193403    0.000000
siesta:     17   -0.655752   -0.419096    0.000000
siesta:     18    0.496122   -0.026120    0.000000
siesta:     19   -2.947097   -1.959214    0.000000
siesta:     20    3.107230    1.561632    0.000000
siesta:     21   -0.194552    0.510835    0.000000
siesta:     22    0.593365   -0.977806    0.000000
siesta:     23    0.179883    3.419804    0.000000
siesta:     24   -0.477672   -3.163234    0.000000
siesta:     25   -0.025061   -0.030339    0.000000
siesta:     26   -0.313900   -0.812928    0.000000
siesta:     27    0.304154    0.391769    0.000000
siesta:     28   -3.195785   -1.652308    0.000000
siesta:     29    3.205559    1.835292    0.000000
siesta:     30    0.998729    0.098429    0.000000
siesta:     31    0.339686   -3.627392    0.000000
siesta:     32    2.928523    1.485173    0.000000
siesta:     33    0.007935    1.585455    0.000000
siesta:     34   -2.914991    1.660746    0.000000
siesta:     35    2.836678    1.897935    0.000000
siesta:     36    0.667850    0.879369    0.000000
siesta:     37   -2.818228    1.732760    0.000000
siesta:     38    1.055826   -0.426635    0.000000
siesta:     39    0.035966   -3.176722    0.000000
siesta:     40   -1.095863   -0.439163    0.000000
siesta:     41   -0.074324    0.041280    0.000000
siesta:     42    0.912726   -0.673997    0.000000
siesta:     43    0.050919   -3.074825    0.000000
siesta:     44    2.872627    1.527009    0.000000
siesta:     45   -0.267688    0.978183    0.000000
siesta:     46   -2.766331    2.029200    0.000000
siesta:     47    0.342081   -0.362261    0.000000
siesta:     48   -0.452718    0.752372    0.000000
siesta:     49   -0.653166   -0.748412    0.000000
siesta:     50    0.565576    0.769544    0.000000
siesta:     51    2.869170    1.543675    0.000000
siesta:     52   -0.788653   -0.484429    0.000000
siesta:     53   -0.024685   -0.039066    0.000000
siesta:     54    2.988052    1.745354    0.000000
siesta:     55    0.948854   -0.470400    0.000000
siesta:     56   -0.079463   -3.138569    0.000000
siesta:     57    0.085564    1.062539    0.000000
siesta:     58   -2.967887    1.611487    0.000000
siesta:     59    0.603079   -0.522233    0.000000
siesta:     60   -0.078826    0.330912    0.000000
siesta:     61    2.671194    1.800565    0.000000
siesta:     62   -1.202216   -0.843212    0.000000
siesta:     63    0.358948    0.168285    0.000000
siesta:     64   -0.244748   -0.041602    0.000000
siesta:     65   -0.601969   -0.406491    0.000000
siesta:     66   -0.986090   -0.544400    0.000000
siesta:     67    0.149313   -0.025795    0.000000
siesta:     68   -0.562301   -0.373320    0.000000
siesta:     69   -0.002515    0.047533    0.000000
siesta:     70    0.096669    0.063238    0.000000
siesta:     71    0.008496    0.051574    0.000000
siesta:     72   -0.012440    0.022589    0.000000
siesta: ----------------------------------------
siesta:    Tot    0.186043   -0.141320    0.000000

siesta: Stress tensor (static) (eV/Ang**3):
siesta:    -0.074407   -0.000921    0.000000
siesta:    -0.000922   -0.073718    0.000000
siesta:     0.000000    0.000000   -0.000157

siesta: Cell volume =       1893.226895 Ang**3

siesta: Pressure (static):
siesta:                Solid            Molecule  Units
siesta:           0.00053833          0.00049872  Ry/Bohr**3
siesta:           0.04942740          0.04579096  eV/Ang**3
siesta:          79.19227350         73.36599475  kBar
(Free)E+ p_basis*V_orbitals  =      -11111.503285
(Free)Eharris+ p_basis*V_orbitals  =      -11111.509074

siesta: Electric dipole (a.u.)  =    0.000000    0.000000    0.000000
siesta: Electric dipole (Debye) =    0.000000    0.000000    0.000000

* Maximum dynamic memory allocated : Node    0 =   222 MB
* Maximum dynamic memory allocated : Node    1 =    80 MB
* Maximum dynamic memory allocated : Node    2 =    84 MB
* Maximum dynamic memory allocated : Node    3 =   211 MB
* Maximum dynamic memory allocated : Node    4 =   222 MB
* Maximum dynamic memory allocated : Node    5 =    80 MB
* Maximum dynamic memory allocated : Node    6 =    83 MB
* Maximum dynamic memory allocated : Node    7 =   204 MB

* Maximum memory occured during matrixMtoO                    

timer: CPU execution times:
timer:  Routine       Calls   Time/call    Tot.time        %
timer:  siesta            1  153081.105  153081.105   100.00
timer:  Setup             1       3.784       3.784     0.00
timer:  bands             1       0.017       0.017     0.00
timer:  writewave         1       0.041       0.041     0.00
timer:  KSV_init          1       0.006       0.006     0.00
timer:  IterMD            1  153069.436  153069.436    99.99
timer:  hsparse           1       0.395       0.395     0.00
timer:  overlap           1       6.398       6.398     0.00
timer:  IterSCF          23    6646.340  152865.809    99.86
timer:  kinefsm           2       3.311       6.623     0.00
timer:  nlefsm            2      20.300      40.601     0.03
timer:  DHSCF            24     106.003    2544.081     1.66
timer:  DHSCF1            1       0.992       0.992     0.00
timer:  DHSCF2            1      41.923      41.923     0.03
timer:  REORD           194       0.010       1.972     0.00
timer:  POISON           25       2.247      56.174     0.04
timer:  DHSCF3           24     102.613    2462.708     1.61
timer:  rhoofd           24      19.876     477.018     0.31
timer:  cellXC           24       3.530      84.722     0.06
timer:  vmat             24      52.981    1271.539     0.83
timer:  MolMec            2       0.000       0.000     0.00
timer:  diagon           23    6538.894  150394.558    98.25
timer:  c-eigval       8096       6.681   54088.078    35.33
timer:  c-buildHS      8096       0.123     994.014     0.65
timer:  cdiag         16192       6.890  111570.225    72.88
timer:  cdiag1        16192       0.426    6905.711     4.51
timer:  cdiag2        16192       1.905   30850.688    20.15
timer:  cdiag3        16192       3.949   63945.085    41.77
timer:  cdiag4        16192       0.229    3712.877     2.43
timer:  c-eigvec       8096       7.295   59059.262    38.58
timer:  c-buildD       8096       4.592   37179.239    24.29
timer:  DHSCF4            1      37.137      37.137     0.02
timer:  dfscf             1      34.576      34.576     0.02
timer:  overfsm           1       0.426       0.426     0.00
timer:  optical           1       6.938       6.938     0.00
  

elaps: ELAPSED times:
elaps:  Routine       Calls   Time/call    Tot.time        %
elaps:  siesta            1   19156.923   19156.923   100.00
elaps:  Setup             1       0.489       0.489     0.00
elaps:  bands             1       0.002       0.002     0.00
elaps:  writewave         1       0.005       0.005     0.00
elaps:  KSV_init          1       0.001       0.001     0.00
elaps:  IterMD            1   19155.440   19155.440    99.99
elaps:  hsparse           1       0.049       0.049     0.00
elaps:  overlap           1       0.530       0.530     0.00
elaps:  IterSCF          23     831.758   19130.430    99.86
elaps:  kinefsm           2       0.276       0.552     0.00
elaps:  nlefsm            2       2.623       5.246     0.03
elaps:  DHSCF            24      13.413     321.901     1.68
elaps:  DHSCF1            1       0.127       0.127     0.00
elaps:  DHSCF2            1       5.246       5.246     0.03
elaps:  REORD           194       0.001       0.265     0.00
elaps:  POISON           25       0.281       7.020     0.04
elaps:  DHSCF3           24      12.837     308.093     1.61
elaps:  rhoofd           24       4.220     101.281     0.53
elaps:  cellXC           24       0.441      10.575     0.06
elaps:  vmat             24       6.628     159.072     0.83
elaps:  MolMec            2       0.000       0.000     0.00
elaps:  diagon           23     818.307   18821.060    98.25
elaps:  c-eigval       8096       0.836    6767.271    35.33
elaps:  c-buildHS      8096       0.017     133.752     0.70
elaps:  cdiag         16192       0.850   13765.470    71.86
elaps:  cdiag1        16192       0.053     862.012     4.50
elaps:  cdiag2        16192       0.238    3859.985    20.15
elaps:  cdiag3        16192       0.495    8011.350    41.82
elaps:  cdiag4        16192       0.029     463.138     2.42
elaps:  c-eigvec       8096       0.893    7226.423    37.72
elaps:  c-buildD       8096       0.595    4818.050    25.15
elaps:  DHSCF4            1       8.260       8.260     0.04
elaps:  dfscf             1       7.762       7.762     0.04
elaps:  overfsm           1       0.052       0.052     0.00
elaps:  optical           1       0.001       0.001     0.00
  
>> End of run:  28-NOV-2015  13:19:21
