Siesta Version:                                        siesta-3.2-pl-3
Architecture  : x86_64-unknown-linux-gnu--unknown
Compiler flags: mpiifort -g -O2 -fPIC -xSSE4.1 -fp-model source -shared-intel 
PARALLEL version

* Running on    8 nodes in parallel
>> Start of run:   9-DEC-2015  17:10:35

                           ***********************       
                           *  WELCOME TO SIESTA  *       
                           ***********************       

reinit: Reading from standard input
************************** Dump of input data file ****************************
#(1) General system descriptors
SystemName            GRP_doping    # Descriptive name of the system
SystemLabel           GRP_doping    # Short name for naming files
%include STRUCT.fdf
%include KPT.fdf
%include BASIS.fdf
#%include TS.fdf # for transiesta calculation
#(4) DFT, Grid, SCF
XC.functional         GGA           # LDA or GGA (default = LDA)
XC.authors            PBE           # CA (Ceperley-Aldr) = PZ
                                    #    (Perdew-Zunger) - LDA - Default
                                    # PW92 (Perdew-Wang-92) - LDA
                                    # PBE (Perdew-Burke-Ernzerhof) - GGA
MeshCutoff            200.000000    Ry      # Default: 50.0 Ry ~ 0.444 Bohr
                                    #         100.0 Ry ~ 0.314 Bohr
MaxSCFIterations      500           # Default: 50
DM.MixingWeight       0.05          # Default: 0.25
DM.NumberPulay        10            # Default: 0
DM.PulayOnFile        F             # SystemLabel.P1, SystemLabel.P2
DM.Tolerance          1.d-4         # Default: 1.d-4
DM.UseSaveDM          .true.        # because of the bug
SCFMustConverge       .true.
NeglNonOverlapInt     F             # Default: F
#(5) Eigenvalue problem: order-N or diagonalization
SolutionMethod        Diagon        # or Transiesta
ElectronicTemperature 300.0 K       # Default: 300.0 K
#(6) Molecular dynamics and relaxations
#MD.TypeOfRun          CG            # Type of dynamics:
#MD.VariableCell       F
#MD.NumCGsteps         0           # 0 for single-point / 100 for gopt
#MD.MaxCGDispl         0.2 Bohr      # Default: 0.2 Bohr
#MD.MaxForceTol        0.02 eV/Ang   # Default: 0.04 eV/Ang
#MD.MaxStressTol       1.0 GPa       # Default: 1.0 GPa
# Geometry Constraints
#%block GeometryConstraints
#	position from 1 to 44
#%endblock GeometryConstraints
BandLinesScale   pi/a
%block BandLines
 1   0.00000000  0.00000000  0.00000000
50   0.00000000  0.07809418  0.00000000
50   0.04509075  0.07809242  0.00000000
20   0.00000000  0.00000000  0.00000000
%endblock BandLines
************************** End of input data file *****************************

reinit: -----------------------------------------------------------------------
reinit: System Name: GRP_doping
reinit: -----------------------------------------------------------------------
reinit: System Label: GRP_doping                                                  
reinit: -----------------------------------------------------------------------

initatom: Reading input for the pseudopotentials and atomic orbitals ----------
 Species number:            1  Label: C Atomic number:           6
 Species number:            2  Label: N Atomic number:           7
Ground state valence configuration:   2s02  2p02
Reading pseudopotential information in formatted form from C.psf

Valence configuration for pseudopotential generation:
2s( 2.00) rc: 1.54
2p( 2.00) rc: 1.54
3d( 0.00) rc: 1.54
4f( 0.00) rc: 1.54
Ground state valence configuration:   2s02  2p03
Reading pseudopotential information in formatted form from N.psf

Valence configuration for pseudopotential generation:
2s( 2.00) rc: 1.48
2p( 3.00) rc: 1.48
3d( 0.00) rc: 1.48
4f( 0.00) rc: 1.48
For C, standard SIESTA heuristics set lmxkb to 3
 (one more than the basis l, including polarization orbitals).
Use PS.lmax or PS.KBprojectors blocks to override.
For N, standard SIESTA heuristics set lmxkb to 3
 (one more than the basis l, including polarization orbitals).
Use PS.lmax or PS.KBprojectors blocks to override.

<basis_specs>
===============================================================================
C                    Z=   6    Mass=  12.010        Charge= 0.17977+309
Lmxo=1 Lmxkb= 3    BasisType=split      Semic=F
L=0  Nsemic=0  Cnfigmx=2
          n=1  nzeta=2  polorb=0
            splnorm:   0.15000    
               vcte:    0.0000    
               rinn:    0.0000    
                rcs:    0.0000      0.0000    
            lambdas:    1.0000      1.0000    
L=1  Nsemic=0  Cnfigmx=2
          n=1  nzeta=2  polorb=1
            splnorm:   0.15000    
               vcte:    0.0000    
               rinn:    0.0000    
                rcs:    0.0000      0.0000    
            lambdas:    1.0000      1.0000    
-------------------------------------------------------------------------------
L=0  Nkbl=1  erefs: 0.17977+309
L=1  Nkbl=1  erefs: 0.17977+309
L=2  Nkbl=1  erefs: 0.17977+309
L=3  Nkbl=1  erefs: 0.17977+309
===============================================================================
</basis_specs>

atom: Called for C                     (Z =   6)

read_vps: Pseudopotential generation method:
read_vps: ATM3      Troullier-Martins                       
Total valence charge:    4.00000

read_vps: Pseudopotential includes a core correction:
read_vps: Pseudo-core for xc-correction

xc_check: Exchange-correlation functional:
xc_check: GGA Perdew, Burke & Ernzerhof 1996
V l=0 = -2*Zval/r beyond r=  1.5227
V l=1 = -2*Zval/r beyond r=  1.5227
V l=2 = -2*Zval/r beyond r=  1.5227
V l=3 = -2*Zval/r beyond r=  1.5038
All V_l potentials equal beyond r=  1.5227
This should be close to max(r_c) in ps generation
All pots = -2*Zval/r beyond r=  1.5227

VLOCAL1: 99.0% of the norm of Vloc inside     18.722 Ry
VLOCAL1: 99.9% of the norm of Vloc inside     42.668 Ry
atom: Maximum radius for 4*pi*r*r*local-pseudopot. charge    1.83678
atom: Maximum radius for r*vlocal+2*Zval:    1.58088
GHOST: No ghost state for L =  0
GHOST: No ghost state for L =  1
GHOST: No ghost state for L =  2
GHOST: No ghost state for L =  3

KBgen: Kleinman-Bylander projectors: 
   l= 0   rc=  1.704034   el= -1.009801   Ekb=  5.335044   kbcos=  0.316824
   l= 1   rc=  1.704034   el= -0.388707   Ekb= -3.785862   kbcos= -0.366464
   l= 2   rc=  1.791422   el=  0.001971   Ekb= -0.970471   kbcos= -0.009212
   l= 3   rc=  1.859892   el=  0.003065   Ekb= -0.399525   kbcos= -0.001223

KBgen: Total number of  Kleinman-Bylander projectors:   16
atom: -------------------------------------------------------------------------

atom: SANKEY-TYPE ORBITALS:
atom: Selected multiple-zeta basis: split     

SPLIT: Orbitals with angular momentum L= 0

SPLIT: Basis orbitals for state 2s

SPLIT: PAO cut-off radius determined from an
SPLIT: energy shift=  0.007350 Ry

   izeta = 1
                 lambda =    1.000000
                     rc =    4.632753
                 energy =   -1.002270
                kinetic =    0.855760
    potential(screened) =   -1.858031
       potential(ionic) =   -5.417575

   izeta = 2
                 rmatch =    3.431921
              splitnorm =    0.150000
                 energy =   -0.867111
                kinetic =    1.300804
    potential(screened) =   -2.167915
       potential(ionic) =   -5.962684

SPLIT: Orbitals with angular momentum L= 1

SPLIT: Basis orbitals for state 2p

SPLIT: PAO cut-off radius determined from an
SPLIT: energy shift=  0.007350 Ry

   izeta = 1
                 lambda =    1.000000
                     rc =    5.658549
                 energy =   -0.381140
                kinetic =    2.399701
    potential(screened) =   -2.780841
       potential(ionic) =   -6.206085

   izeta = 2
                 rmatch =    3.653288
              splitnorm =    0.150000
                 energy =   -0.249149
                kinetic =    3.542762
    potential(screened) =   -3.791911
       potential(ionic) =   -7.581078

POLgen: Perturbative polarization orbital with L=  2

POLgen: Polarization orbital for state 2p

   izeta = 1
                     rc =    5.658549
                 energy =    1.109913
                kinetic =    2.304789
    potential(screened) =   -1.194876
       potential(ionic) =   -4.013592
atom: Total number of Sankey-type orbitals: 13

atm_pop: Valence configuration (for local Pseudopot. screening):
 2s( 2.00)                                                            
 2p( 2.00)                                                            
Vna: chval, zval:    4.00000   4.00000

Vna:  Cut-off radius for the neutral-atom potential:   5.658549
comcore: Pseudo-core radius Rcore=  1.791422

atom: _________________________________________________________________________

<basis_specs>
===============================================================================
N                    Z=   7    Mass=  14.010        Charge= 0.17977+309
Lmxo=1 Lmxkb= 3    BasisType=split      Semic=F
L=0  Nsemic=0  Cnfigmx=2
          n=1  nzeta=2  polorb=0
            splnorm:   0.15000    
               vcte:    0.0000    
               rinn:    0.0000    
                rcs:    0.0000      0.0000    
            lambdas:    1.0000      1.0000    
L=1  Nsemic=0  Cnfigmx=2
          n=1  nzeta=2  polorb=1
            splnorm:   0.15000    
               vcte:    0.0000    
               rinn:    0.0000    
                rcs:    0.0000      0.0000    
            lambdas:    1.0000      1.0000    
-------------------------------------------------------------------------------
L=0  Nkbl=1  erefs: 0.17977+309
L=1  Nkbl=1  erefs: 0.17977+309
L=2  Nkbl=1  erefs: 0.17977+309
L=3  Nkbl=1  erefs: 0.17977+309
===============================================================================
</basis_specs>

atom: Called for N                     (Z =   7)

read_vps: Pseudopotential generation method:
read_vps: ATM3      Troullier-Martins                       
Total valence charge:    5.00000

read_vps: Pseudopotential includes a core correction:
read_vps: Pseudo-core for xc-correction

xc_check: Exchange-correlation functional:
xc_check: GGA Perdew, Burke & Ernzerhof 1996
V l=0 = -2*Zval/r beyond r=  1.4606
V l=1 = -2*Zval/r beyond r=  1.4606
V l=2 = -2*Zval/r beyond r=  1.4606
V l=3 = -2*Zval/r beyond r=  1.4606
All V_l potentials equal beyond r=  1.4606
This should be close to max(r_c) in ps generation
All pots = -2*Zval/r beyond r=  1.4606

VLOCAL1: 99.0% of the norm of Vloc inside     20.347 Ry
VLOCAL1: 99.9% of the norm of Vloc inside     46.372 Ry
atom: Maximum radius for 4*pi*r*r*local-pseudopot. charge    1.76189
atom: Maximum radius for r*vlocal+2*Zval:    1.53550
GHOST: No ghost state for L =  0
GHOST: No ghost state for L =  1
GHOST: No ghost state for L =  2
GHOST: No ghost state for L =  3

KBgen: Kleinman-Bylander projectors: 
   l= 0   rc=  1.634559   el= -1.363963   Ekb=  5.296955   kbcos=  0.335621
   l= 1   rc=  1.614250   el= -0.521451   Ekb= -5.259161   kbcos= -0.433408
   l= 2   rc=  1.718383   el=  0.001991   Ekb= -1.271464   kbcos= -0.007566
   l= 3   rc=  1.761893   el=  0.003093   Ekb= -0.494769   kbcos= -0.001015

KBgen: Total number of  Kleinman-Bylander projectors:   16
atom: -------------------------------------------------------------------------

atom: SANKEY-TYPE ORBITALS:
atom: Selected multiple-zeta basis: split     

SPLIT: Orbitals with angular momentum L= 0

SPLIT: Basis orbitals for state 2s

SPLIT: PAO cut-off radius determined from an
SPLIT: energy shift=  0.007350 Ry

   izeta = 1
                 lambda =    1.000000
                     rc =    4.071465
                 energy =   -1.356470
                kinetic =    1.176977
    potential(screened) =   -2.533447
       potential(ionic) =   -8.057990

   izeta = 2
                 rmatch =    2.905100
              splitnorm =    0.150000
                 energy =   -1.158343
                kinetic =    1.813009
    potential(screened) =   -2.971352
       potential(ionic) =   -8.901931

SPLIT: Orbitals with angular momentum L= 1

SPLIT: Basis orbitals for state 2p

SPLIT: PAO cut-off radius determined from an
SPLIT: energy shift=  0.007350 Ry

   izeta = 1
                 lambda =    1.000000
                     rc =    4.972977
                 energy =   -0.513884
                kinetic =    3.441732
    potential(screened) =   -3.955616
       potential(ionic) =   -9.287901

   izeta = 2
                 rmatch =    3.054066
              splitnorm =    0.150000
                 energy =   -0.318226
                kinetic =    5.125348
    potential(screened) =   -5.443573
       potential(ionic) =  -11.380999

POLgen: Perturbative polarization orbital with L=  2

POLgen: Polarization orbital for state 2p

   izeta = 1
                     rc =    4.972977
                 energy =    1.607437
                kinetic =    3.268125
    potential(screened) =   -1.660688
       potential(ionic) =   -5.973652
atom: Total number of Sankey-type orbitals: 13

atm_pop: Valence configuration (for local Pseudopot. screening):
 2s( 2.00)                                                            
 2p( 3.00)                                                            
Vna: chval, zval:    5.00000   5.00000

Vna:  Cut-off radius for the neutral-atom potential:   4.972977
comcore: Pseudo-core radius Rcore=  1.554824

atom: _________________________________________________________________________

prinput: Basis input ----------------------------------------------------------

PAO.BasisType split     

%block ChemicalSpeciesLabel
    1    6 C                       # Species index, atomic number, species label
    2    7 N                       # Species index, atomic number, species label
%endblock ChemicalSpeciesLabel

%block PAO.Basis                 # Define Basis set
C                     2                    # Species label, number of l-shells
 n=2   0   2                         # n, l, Nzeta 
   4.633      3.432   
   1.000      1.000   
 n=2   1   2 P   1                   # n, l, Nzeta, Polarization, NzetaPol
   5.659      3.653   
   1.000      1.000   
N                     2                    # Species label, number of l-shells
 n=2   0   2                         # n, l, Nzeta 
   4.071      2.905   
   1.000      1.000   
 n=2   1   2 P   1                   # n, l, Nzeta, Polarization, NzetaPol
   4.973      3.054   
   1.000      1.000   
%endblock PAO.Basis

prinput: ----------------------------------------------------------------------

coor:   Atomic-coordinates input format  =     Cartesian coordinates
coor:                                          (in Angstroms)

siesta: Atomic coordinates (Bohr) and species
siesta:      2.23554   1.32097   0.00000  1        1
siesta:      4.56367   2.66461   0.00000  1        2
siesta:     32.50328  21.48508   0.00000  1        3
siesta:     34.83141  22.82873   0.00000  1        4
siesta:     34.83116  17.45226   0.00000  1        5
siesta:     37.15930  18.79590   0.00000  1        6
siesta:     32.50291  13.41944   0.00000  1        7
siesta:     34.83104  14.76308   0.00000  1        8
siesta:     30.17465   9.38661   0.00000  1        9
siesta:     32.50278  10.73026   0.00000  1       10
siesta:     27.84639   5.35379   0.00000  1       11
siesta:     30.17453   6.69743   0.00000  1       12
siesta:     27.84714  21.48508   0.00000  1       13
siesta:     30.17527  22.82873   0.00000  1       14
siesta:      6.89168   1.32097   0.00000  1       15
siesta:      9.21981   2.66461   0.00000  1       16
siesta:     11.54782   1.32097   0.00000  1       17
siesta:     13.87595   2.66461   0.00000  1       18
siesta:     16.20396   1.32097   0.00000  1       19
siesta:     18.53210   2.66461   0.00000  1       20
siesta:     20.86199   1.32097   0.00000  1       21
siesta:     23.19013   2.66461   0.00000  1       22
siesta:     25.51813   1.32097   0.00000  1       23
siesta:     27.84627   2.66461   0.00000  1       24
siesta:      4.56380   5.35379   0.00000  1       25
siesta:      6.89193   6.69743   0.00000  1       26
siesta:      9.21994   5.35379   0.00000  1       27
siesta:     11.54807   6.69743   0.00000  1       28
siesta:     13.87608   5.35379   0.00000  1       29
siesta:     16.20421   6.69743   0.00000  1       30
siesta:     18.53411   5.35379   0.00000  1       31
siesta:     20.86224   6.69743   0.00000  1       32
siesta:     23.19025   5.35379   0.00000  1       33
siesta:     25.51838   6.69743   0.00000  1       34
siesta:      6.89205   9.38661   0.00000  1       35
siesta:      9.22019  10.73026   0.00000  1       36
siesta:     11.54820   9.38661   0.00000  1       37
siesta:     13.87633  10.73026   0.00000  1       38
siesta:     16.20434   9.38661   0.00000  1       39
siesta:     20.86237   9.38661   0.00000  1       40
siesta:      9.22031  13.41944   0.00000  1       41
siesta:     11.54845  14.76308   0.00000  1       42
siesta:     13.87645  13.41944   0.00000  1       43
siesta:     16.20459  14.76308   0.00000  1       44
siesta:     18.53448  13.41944   0.00000  1       45
siesta:     11.54857  17.45226   0.00000  1       46
siesta:     13.87670  18.79590   0.00000  1       47
siesta:     16.20471  17.45226   0.00000  1       48
siesta:     18.53284  18.79590   0.00000  1       49
siesta:     13.87683  21.48508   0.00000  1       50
siesta:     16.20496  22.82873   0.00000  1       51
siesta:     18.53486  21.48508   0.00000  1       52
siesta:     20.86299  22.82873   0.00000  1       53
siesta:     25.51851   9.38661   0.00000  1       54
siesta:     27.84664  10.73026   0.00000  1       55
siesta:     23.19063  13.41944   0.00000  1       56
siesta:     25.51876  14.76308   0.00000  1       57
siesta:     20.86274  17.45226   0.00000  1       58
siesta:     23.19088  18.79590   0.00000  1       59
siesta:     27.84677  13.41944   0.00000  1       60
siesta:     30.17490  14.76308   0.00000  1       61
siesta:     25.51888  17.45226   0.00000  1       62
siesta:     27.84702  18.79590   0.00000  1       63
siesta:     23.19100  21.48508   0.00000  1       64
siesta:     25.51913  22.82873   0.00000  1       65
siesta:     30.17503  17.45226   0.00000  1       66
siesta:     32.50316  18.79590   0.00000  1       67
siesta:     37.16131  21.48508   0.00000  1       68
siesta:     39.48945  22.82873   0.00000  1       69
siesta:     18.53247  10.73026   0.00000  2       70
siesta:     23.19050  10.73026   0.00000  2       71
siesta:     20.86262  14.76308   0.00000  2       72

siesta: System type = slab      

initatomlists: Number of atoms, orbitals, and projectors:     72   936  1152

siesta: ******************** Simulation parameters ****************************
siesta:
siesta: The following are some of the parameters of the simulation.
siesta: A complete list of the parameters used, including default values,
siesta: can be found in file out.fdf
siesta:
redata: Non-Collinear-spin run           =     F
redata: SpinPolarized (Up/Down) run      =     F
redata: Number of spin components        =     1
redata: Long output                      =     F
redata: Number of Atomic Species         =        2
redata: Charge density info will appear in .RHO file
redata: Write Mulliken Pop.              =     NO
redata: Mesh Cutoff                      =   200.0000  Ry
redata: Net charge of the system         =     0.0000 |e|
redata: Max. number of SCF Iter          =      500
redata: SCF convergence failure will abort job
redata: Performing Pulay mixing using    =    10 iterations
redata: Mix DM in first SCF step ?       =     F
redata: Write Pulay info on disk?        =     F
redata: Discard 1st Pulay DM after  kick =     F
redata: New DM Mixing Weight             =     0.0500
redata: New DM Occupancy tolerance       = 0.000000000001
redata: No kicks to SCF
redata: DM Mixing Weight for Kicks       =     0.5000
redata: DM Tolerance for SCF             =     0.000100
redata: Require Energy convergence for SCF =     F
redata: DM Energy tolerance for SCF      =     0.000100 eV
redata: Require Harris convergence for SCF =     F
redata: DM Harris energy tolerance for SCF =     0.000100 eV
redata: Using Saved Data (generic)   =     F
redata: Use continuation files for DM    =     T
redata: Neglect nonoverlap interactions  =     F
redata: Method of Calculation            =     Diagonalization
redata: Divide and Conquer               =     T
redata: Electronic Temperature           =     0.0019  Ry
redata: Fix the spin of the system       =     F
redata: Dynamics option                  =     Verlet MD run
redata: Initial MD time step             =        1
redata:   Final MD time step             =        1
redata: Length of MD time step           =     1.0000  fs
redata: Initial Temperature of MD run    =     0.0000  K
redata: Perform a MD quench              =     F
redata: ***********************************************************************
Total number of electrons:   291.000000
Total ionic charge:   291.000000

* ProcessorY, Blocksize:    2  24

k-point displ. along   1 input, could be:     0.00    0.50
k-point displ. along   2 input, could be:     0.00    0.50
 Kpoints in:          364 . Kpoints trimmed:          352

siesta: k-grid: Number of k-points =   352
siesta: k-grid: Cutoff (effective) =     5.000 Ang
siesta: k-grid: Supercell and displacements
siesta: k-grid:   26   0   0      0.000
siesta: k-grid:    0  26   0      0.000
siesta: k-grid:    0   0   1      0.000
Naive supercell factors:     2    2    2

superc: Internal auxiliary supercell:     2 x     2 x     2  =       8
superc: Number of atoms, orbitals, and projectors:    576   7488   9216

* Maximum dynamic memory allocated =     6 MB

siesta:                 ==============================
                            Begin MD step =      1
                        ==============================

superc: Internal auxiliary supercell:     2 x     2 x     2  =       8
superc: Number of atoms, orbitals, and projectors:    576   7488   9216

outcell: Unit cell vectors (Ang):
       14.785000    0.000000    0.000000
        7.393000   12.805052    0.000000
        0.000000    0.000000   10.000000

outcell: Cell vector modules (Ang)   :   14.785000   14.786000   10.000000
outcell: Cell angles (23,13,12) (deg):     90.0000     90.0000     60.0000
outcell: Cell volume (Ang**3)        :   1893.2269
New_DM. Step:     1
Initializing Density Matrix...

iodm: Reading Density Matrix from files

InitMesh: MESH =   120 x   120 x    90 =     1296000
InitMesh: Mesh cutoff (required, used) =   200.000   223.865 Ry

* Maximum dynamic memory allocated =   193 MB

stepf: Fermi-Dirac step function

siesta: Program's energy decomposition (eV):
siesta: Ebs     =     -4018.830976
siesta: Eions   =     18885.251604
siesta: Ena     =      4005.412450
siesta: Ekin    =      8082.860930
siesta: Enl     =      -882.130306
siesta: DEna    =      -273.603538
siesta: DUscf   =        24.301033
siesta: DUext   =         0.000000
siesta: Exc     =     -4109.610905
siesta: eta*DQ  =         0.000000
siesta: Emadel  =         0.000000
siesta: Emeta   =         0.000000
siesta: Emolmec =         0.000000
siesta: Ekinion =         0.000000
siesta: Eharris =    -12038.029112
siesta: Etot    =    -12038.021940
siesta: FreeEng =    -12038.021940

siesta: iscf   Eharris(eV)      E_KS(eV)   FreeEng(eV)   dDmax  Ef(eV)
siesta:    1   -12038.0291   -12038.0219   -12038.0219  0.0001 -3.9786
timer: Routine,Calls,Time,% = IterSCF        1    6616.631  99.82
elaps: Routine,Calls,Wall,% = IterSCF        1     828.057  99.82

siesta: E_KS(eV) =           -12038.0291

siesta: E_KS - E_eggbox =    -12038.0291

siesta: Atomic forces (eV/Ang):
----------------------------------------
   Tot    0.257691   -0.204096    0.000000
----------------------------------------
   Max    1.313582
   Res    0.263030    sqrt( Sum f_i^2 / 3N )
----------------------------------------
   Max    1.313582    constrained

Stress-tensor-Voigt (kbar):      -24.55      -23.80        0.05       -0.33        0.00        0.00
(Free)E + p*V (eV/cell)   -12019.0379
Target enthalpy (eV/cell)   -12038.0594

siesta: Stress tensor (static) (eV/Ang**3):
        -0.015320   -0.000209    0.000000
        -0.000209   -0.014853    0.000000
         0.000000    0.000000    0.000031

siesta: Pressure (static):         16.09742115  kBar

siesta: Stress tensor (total) (eV/Ang**3):
        -0.015320   -0.000209    0.000000
        -0.000209   -0.014853    0.000000
         0.000000    0.000000    0.000031

siesta: Pressure (total):         16.09742115  kBar

siesta: Temp_ion =       0.000 K

* Maximum dynamic memory allocated =   206 MB
Computing bands...

siesta: Program's energy decomposition (eV):
siesta: Ebs     =     -4018.830976
siesta: Eions   =     18885.251604
siesta: Ena     =      4005.412450
siesta: Ekin    =      8082.838420
siesta: Enl     =      -882.123064
siesta: DEna    =      -273.597303
siesta: DUscf   =        24.300892
siesta: DUext   =         0.000000
siesta: Exc     =     -4109.608900
siesta: eta*DQ  =         0.000000
siesta: Emadel  =         0.000000
siesta: Emeta   =         0.000000
siesta: Emolmec =         0.000000
siesta: Ekinion =         0.000000
siesta: Eharris =    -12038.029112
siesta: Etot    =    -12038.029109
siesta: FreeEng =    -12038.059395

siesta: Final energy (eV):
siesta:  Band Struct. =   -4018.830976
siesta:       Kinetic =    8082.838420
siesta:       Hartree =   23680.246765
siesta:    Ext. field =       0.000000
siesta:   Exch.-corr. =   -4109.608900
siesta:  Ion-electron =  -54836.865825
siesta:       Ion-ion =   15145.360431
siesta:       Ekinion =       0.000000
siesta:         Total =  -12038.029109

siesta: Atomic forces (eV/Ang):
siesta:      1   -0.012746   -0.030558    0.000000
siesta:      2    0.066738    0.037870    0.000000
siesta:      3    0.055270   -0.031218    0.000000
siesta:      4    0.035117    0.069396    0.000000
siesta:      5    0.007368    0.043996    0.000000
siesta:      6    0.066155   -0.025472    0.000000
siesta:      7    0.153398   -0.163013    0.000000
siesta:      8    0.013805   -0.043447    0.000000
siesta:      9   -0.081882   -0.324703    0.000000
siesta:     10    0.039559    0.153624    0.000000
siesta:     11    0.233508    0.221607    0.000000
siesta:     12   -0.070308    0.044440    0.000000
siesta:     13   -0.051422    0.192915    0.000000
siesta:     14   -0.038966    0.045892    0.000000
siesta:     15    0.009746    0.085846    0.000000
siesta:     16   -0.071222    0.039483    0.000000
siesta:     17    0.009031   -0.032126    0.000000
siesta:     18    0.121403   -0.102070    0.000000
siesta:     19   -0.189544   -0.081886    0.000000
siesta:     20    0.200427    0.345907    0.000000
siesta:     21   -0.029420   -0.158609    0.000000
siesta:     22   -0.166609    0.348232    0.000000
siesta:     23    0.215432   -0.082013    0.000000
siesta:     24   -0.112316   -0.104893    0.000000
siesta:     25    0.095942   -0.065367    0.000000
siesta:     26   -0.002980   -0.076991    0.000000
siesta:     27   -0.096609   -0.071037    0.000000
siesta:     28    0.086313    0.053692    0.000000
siesta:     29   -0.213850    0.221823    0.000000
siesta:     30    0.343181    0.504595    0.000000
siesta:     31   -0.137205   -0.396288    0.000000
siesta:     32   -0.004962    1.143019    0.000000
siesta:     33    0.110823   -0.404678    0.000000
siesta:     34   -0.311591    0.506949    0.000000
siesta:     35   -0.007359   -0.008043    0.000000
siesta:     36   -0.029527    0.160702    0.000000
siesta:     37    0.096864   -0.323717    0.000000
siesta:     38    0.595348    0.019450    0.000000
siesta:     39    0.119995    0.048640    0.000000
siesta:     40   -0.014736   -0.194837    0.000000
siesta:     41   -0.152629   -0.156181    0.000000
siesta:     42    0.384017   -0.032002    0.000000
siesta:     43   -0.381678    0.096024    0.000000
siesta:     44    1.013223   -0.573886    0.000000
siesta:     45   -0.189617    0.097500    0.000000
siesta:     46   -0.119005    0.057520    0.000000
siesta:     47    0.219140   -0.312988    0.000000
siesta:     48   -0.278026    0.274783    0.000000
siesta:     49    0.320089   -0.526208    0.000000
siesta:     50    0.085251    0.188291    0.000000
siesta:     51   -0.113135   -0.036681    0.000000
siesta:     52    0.282452    0.075224    0.000000
siesta:     53   -0.008317   -0.072661    0.000000
siesta:     54   -0.106554    0.053114    0.000000
siesta:     55   -0.595177    0.018222    0.000000
siesta:     56    0.167072    0.087145    0.000000
siesta:     57   -0.989989   -0.568616    0.000000
siesta:     58   -0.022260   -0.128971    0.000000
siesta:     59   -0.287370   -0.519042    0.000000
siesta:     60    0.399757    0.096942    0.000000
siesta:     61   -0.388384   -0.033433    0.000000
siesta:     62    0.296437    0.274632    0.000000
siesta:     63   -0.225856   -0.314302    0.000000
siesta:     64   -0.308246    0.069384    0.000000
siesta:     65    0.144494   -0.030452    0.000000
siesta:     66    0.121113    0.055477    0.000000
siesta:     67   -0.044554   -0.024149    0.000000
siesta:     68   -0.078897   -0.026714    0.000000
siesta:     69    0.009678    0.049249    0.000000
siesta:     70    1.222257    0.701667    0.000000
siesta:     71   -1.158485    0.703484    0.000000
siesta:     72    0.008717   -1.313582    0.000000
siesta: ----------------------------------------
siesta:    Tot    0.257691   -0.204096    0.000000

siesta: Stress tensor (static) (eV/Ang**3):
siesta:    -0.015320   -0.000209    0.000000
siesta:    -0.000209   -0.014853    0.000000
siesta:     0.000000    0.000000    0.000031

siesta: Cell volume =       1893.226895 Ang**3

siesta: Pressure (static):
siesta:                Solid            Molecule  Units
siesta:           0.00010943          0.00015615  Ry/Bohr**3
siesta:           0.01004711          0.01433758  eV/Ang**3
siesta:          16.09742115         22.97158250  kBar
(Free)E+ p_basis*V_orbitals  =      -12007.750667
(Free)Eharris+ p_basis*V_orbitals  =      -12007.757838

siesta: Electric dipole (a.u.)  =    0.000000    0.000000    0.000000
siesta: Electric dipole (Debye) =    0.000000    0.000000    0.000000

* Maximum dynamic memory allocated : Node    0 =   206 MB
* Maximum dynamic memory allocated : Node    1 =    74 MB
* Maximum dynamic memory allocated : Node    2 =    76 MB
* Maximum dynamic memory allocated : Node    3 =   196 MB
* Maximum dynamic memory allocated : Node    4 =   206 MB
* Maximum dynamic memory allocated : Node    5 =    73 MB
* Maximum dynamic memory allocated : Node    6 =    75 MB
* Maximum dynamic memory allocated : Node    7 =   190 MB

* Maximum memory occured during matrixMtoO                    

timer: CPU execution times:
timer:  Routine       Calls   Time/call    Tot.time        %
timer:  siesta            1    7613.718    7613.718   100.00
timer:  Setup             1       3.091       3.091     0.04
timer:  bands             3     270.447     811.341    10.66
timer:  writewave         1       0.016       0.016     0.00
timer:  KSV_init          1       0.002       0.002     0.00
timer:  IterMD            1    6790.724    6790.724    89.19
timer:  hsparse           1       0.256       0.256     0.00
timer:  overlap           1       5.000       5.000     0.07
timer:  IterSCF           1    6616.631    6616.631    86.90
timer:  kinefsm           2       2.596       5.191     0.07
timer:  nlefsm            2      19.300      38.599     0.51
timer:  DHSCF             2     125.669     251.339     3.30
timer:  DHSCF1            1       0.754       0.754     0.01
timer:  DHSCF2            1      33.827      33.827     0.44
timer:  REORD            18       0.010       0.185     0.00
timer:  POISON            3       2.290       6.870     0.09
timer:  DHSCF3            2      92.079     184.159     2.42
timer:  rhoofd            2      17.300      34.600     0.45
timer:  cellXC            2       3.534       7.068     0.09
timer:  vmat              2      47.810      95.620     1.26
timer:  MolMec            2       0.000       0.000     0.00
timer:  diagon            1    6450.976    6450.976    84.73
timer:  c-eigval        473       6.715    3176.162    41.72
timer:  c-buildHS       473       0.119      56.239     0.74
timer:  cdiag           825       6.832    5636.149    74.03
timer:  cdiag1          825       0.428     353.447     4.64
timer:  cdiag2          825       1.911    1576.735    20.71
timer:  cdiag3          825       3.969    3274.186    43.00
timer:  cdiag4          825       0.173     143.034     1.88
timer:  c-eigvec        352       7.221    2541.695    33.38
timer:  c-buildD        352       4.379    1541.263    20.24
timer:  DHSCF4            1      32.468      32.468     0.43
timer:  dfscf             1      30.623      30.623     0.40
timer:  overfsm           1       0.381       0.381     0.01
timer:  optical           1       7.484       7.484     0.10
  

elaps: ELAPSED times:
elaps:  Routine       Calls   Time/call    Tot.time        %
elaps:  siesta            1     952.807     952.807   100.00
elaps:  Setup             1       0.385       0.385     0.04
elaps:  bands             3      33.857     101.571    10.66
elaps:  writewave         1       0.002       0.002     0.00
elaps:  KSV_init          1       0.000       0.000     0.00
elaps:  IterMD            1     849.836     849.836    89.19
elaps:  hsparse           1       0.032       0.032     0.00
elaps:  overlap           1       0.518       0.518     0.05
elaps:  IterSCF           1     828.057     828.057    86.91
elaps:  kinefsm           2       0.271       0.543     0.06
elaps:  nlefsm            2       2.378       4.755     0.50
elaps:  DHSCF             2      17.347      34.695     3.64
elaps:  DHSCF1            1       0.099       0.099     0.01
elaps:  DHSCF2            1       4.229       4.229     0.44
elaps:  REORD            18       0.001       0.024     0.00
elaps:  POISON            3       0.288       0.865     0.09
elaps:  DHSCF3            2      11.520      23.041     2.42
elaps:  rhoofd            2       3.744       7.488     0.79
elaps:  cellXC            2       0.441       0.883     0.09
elaps:  vmat              2       5.981      11.963     1.26
elaps:  MolMec            2       0.000       0.000     0.00
elaps:  diagon            1     807.352     807.352    84.73
elaps:  c-eigval        473       0.840     397.416    41.71
elaps:  c-buildHS       473       0.016       7.688     0.81
elaps:  cdiag           825       0.845     697.265    73.18
elaps:  cdiag1          825       0.054      44.242     4.64
elaps:  cdiag2          825       0.239     197.303    20.71
elaps:  cdiag3          825       0.497     410.263    43.06
elaps:  cdiag4          825       0.022      17.993     1.89
elaps:  c-eigvec        352       0.885     311.576    32.70
elaps:  c-buildD        352       0.567     199.419    20.93
elaps:  DHSCF4            1       7.310       7.310     0.77
elaps:  dfscf             1       6.931       6.931     0.73
elaps:  overfsm           1       0.049       0.049     0.01
elaps:  optical           1       0.000       0.000     0.00
  
>> End of run:   9-DEC-2015  17:26:28
