Siesta Version:                                        siesta-3.2-pl-3
Architecture  : x86_64-unknown-linux-gnu--unknown
Compiler flags: mpiifort -g -O2 -fPIC -xSSE4.1 -fp-model source -shared-intel 
PARALLEL version

* Running on    8 nodes in parallel
>> Start of run:   1-DEC-2015   8:21:17

                           ***********************       
                           *  WELCOME TO SIESTA  *       
                           ***********************       

reinit: Reading from standard input
************************** Dump of input data file ****************************
#(1) General system descriptors
SystemName            GRP_doping    # Descriptive name of the system
SystemLabel           GRP_doping    # Short name for naming files
%include STRUCT.fdf
%include KPT.fdf
%include BASIS.fdf
#%include TS.fdf # for transiesta calculation
#(4) DFT, Grid, SCF
XC.functional         GGA           # LDA or GGA (default = LDA)
XC.authors            PBE           # CA (Ceperley-Aldr) = PZ
                                    #    (Perdew-Zunger) - LDA - Default
                                    # PW92 (Perdew-Wang-92) - LDA
                                    # PBE (Perdew-Burke-Ernzerhof) - GGA
MeshCutoff            200.000000    Ry      # Default: 50.0 Ry ~ 0.444 Bohr
                                    #         100.0 Ry ~ 0.314 Bohr
MaxSCFIterations      500           # Default: 50
DM.MixingWeight       0.05          # Default: 0.25
DM.NumberPulay        10            # Default: 0
DM.PulayOnFile        F             # SystemLabel.P1, SystemLabel.P2
DM.Tolerance          1.d-4         # Default: 1.d-4
DM.UseSaveDM          .true.        # because of the bug
SCFMustConverge       .true.
NeglNonOverlapInt     F             # Default: F
#(5) Eigenvalue problem: order-N or diagonalization
SolutionMethod        Diagon        # or Transiesta
ElectronicTemperature 300.0 K       # Default: 300.0 K
#(6) Molecular dynamics and relaxations
#MD.TypeOfRun          CG            # Type of dynamics:
#MD.VariableCell       F
#MD.NumCGsteps         0           # 0 for single-point / 100 for gopt
#MD.MaxCGDispl         0.2 Bohr      # Default: 0.2 Bohr
#MD.MaxForceTol        0.02 eV/Ang   # Default: 0.04 eV/Ang
#MD.MaxStressTol       1.0 GPa       # Default: 1.0 GPa
# Geometry Constraints
#%block GeometryConstraints
#	position from 1 to 44
#%endblock GeometryConstraints
************************** End of input data file *****************************

reinit: -----------------------------------------------------------------------
reinit: System Name: GRP_doping
reinit: -----------------------------------------------------------------------
reinit: System Label: GRP_doping                                                  
reinit: -----------------------------------------------------------------------

initatom: Reading input for the pseudopotentials and atomic orbitals ----------
 Species number:            1  Label: C Atomic number:           6
 Species number:            2  Label: N Atomic number:           7
Ground state valence configuration:   2s02  2p02
Reading pseudopotential information in formatted form from C.psf

Valence configuration for pseudopotential generation:
2s( 2.00) rc: 1.54
2p( 2.00) rc: 1.54
3d( 0.00) rc: 1.54
4f( 0.00) rc: 1.54
Ground state valence configuration:   2s02  2p03
Reading pseudopotential information in formatted form from N.psf

Valence configuration for pseudopotential generation:
2s( 2.00) rc: 1.48
2p( 3.00) rc: 1.48
3d( 0.00) rc: 1.48
4f( 0.00) rc: 1.48
For C, standard SIESTA heuristics set lmxkb to 3
 (one more than the basis l, including polarization orbitals).
Use PS.lmax or PS.KBprojectors blocks to override.
For N, standard SIESTA heuristics set lmxkb to 3
 (one more than the basis l, including polarization orbitals).
Use PS.lmax or PS.KBprojectors blocks to override.

<basis_specs>
===============================================================================
C                    Z=   6    Mass=  12.010        Charge= 0.17977+309
Lmxo=1 Lmxkb= 3    BasisType=split      Semic=F
L=0  Nsemic=0  Cnfigmx=2
          n=1  nzeta=2  polorb=0
            splnorm:   0.15000    
               vcte:    0.0000    
               rinn:    0.0000    
                rcs:    0.0000      0.0000    
            lambdas:    1.0000      1.0000    
L=1  Nsemic=0  Cnfigmx=2
          n=1  nzeta=2  polorb=1
            splnorm:   0.15000    
               vcte:    0.0000    
               rinn:    0.0000    
                rcs:    0.0000      0.0000    
            lambdas:    1.0000      1.0000    
-------------------------------------------------------------------------------
L=0  Nkbl=1  erefs: 0.17977+309
L=1  Nkbl=1  erefs: 0.17977+309
L=2  Nkbl=1  erefs: 0.17977+309
L=3  Nkbl=1  erefs: 0.17977+309
===============================================================================
</basis_specs>

atom: Called for C                     (Z =   6)

read_vps: Pseudopotential generation method:
read_vps: ATM3      Troullier-Martins                       
Total valence charge:    4.00000

read_vps: Pseudopotential includes a core correction:
read_vps: Pseudo-core for xc-correction

xc_check: Exchange-correlation functional:
xc_check: GGA Perdew, Burke & Ernzerhof 1996
V l=0 = -2*Zval/r beyond r=  1.5227
V l=1 = -2*Zval/r beyond r=  1.5227
V l=2 = -2*Zval/r beyond r=  1.5227
V l=3 = -2*Zval/r beyond r=  1.5038
All V_l potentials equal beyond r=  1.5227
This should be close to max(r_c) in ps generation
All pots = -2*Zval/r beyond r=  1.5227

VLOCAL1: 99.0% of the norm of Vloc inside     18.722 Ry
VLOCAL1: 99.9% of the norm of Vloc inside     42.668 Ry
atom: Maximum radius for 4*pi*r*r*local-pseudopot. charge    1.83678
atom: Maximum radius for r*vlocal+2*Zval:    1.58088
GHOST: No ghost state for L =  0
GHOST: No ghost state for L =  1
GHOST: No ghost state for L =  2
GHOST: No ghost state for L =  3

KBgen: Kleinman-Bylander projectors: 
   l= 0   rc=  1.704034   el= -1.009801   Ekb=  5.335044   kbcos=  0.316824
   l= 1   rc=  1.704034   el= -0.388707   Ekb= -3.785862   kbcos= -0.366464
   l= 2   rc=  1.791422   el=  0.001971   Ekb= -0.970471   kbcos= -0.009212
   l= 3   rc=  1.859892   el=  0.003065   Ekb= -0.399525   kbcos= -0.001223

KBgen: Total number of  Kleinman-Bylander projectors:   16
atom: -------------------------------------------------------------------------

atom: SANKEY-TYPE ORBITALS:
atom: Selected multiple-zeta basis: split     

SPLIT: Orbitals with angular momentum L= 0

SPLIT: Basis orbitals for state 2s

SPLIT: PAO cut-off radius determined from an
SPLIT: energy shift=  0.007350 Ry

   izeta = 1
                 lambda =    1.000000
                     rc =    4.632753
                 energy =   -1.002270
                kinetic =    0.855760
    potential(screened) =   -1.858031
       potential(ionic) =   -5.417575

   izeta = 2
                 rmatch =    3.431921
              splitnorm =    0.150000
                 energy =   -0.867111
                kinetic =    1.300804
    potential(screened) =   -2.167915
       potential(ionic) =   -5.962684

SPLIT: Orbitals with angular momentum L= 1

SPLIT: Basis orbitals for state 2p

SPLIT: PAO cut-off radius determined from an
SPLIT: energy shift=  0.007350 Ry

   izeta = 1
                 lambda =    1.000000
                     rc =    5.658549
                 energy =   -0.381140
                kinetic =    2.399701
    potential(screened) =   -2.780841
       potential(ionic) =   -6.206085

   izeta = 2
                 rmatch =    3.653288
              splitnorm =    0.150000
                 energy =   -0.249149
                kinetic =    3.542762
    potential(screened) =   -3.791911
       potential(ionic) =   -7.581078

POLgen: Perturbative polarization orbital with L=  2

POLgen: Polarization orbital for state 2p

   izeta = 1
                     rc =    5.658549
                 energy =    1.109913
                kinetic =    2.304789
    potential(screened) =   -1.194876
       potential(ionic) =   -4.013592
atom: Total number of Sankey-type orbitals: 13

atm_pop: Valence configuration (for local Pseudopot. screening):
 2s( 2.00)                                                            
 2p( 2.00)                                                            
Vna: chval, zval:    4.00000   4.00000

Vna:  Cut-off radius for the neutral-atom potential:   5.658549
comcore: Pseudo-core radius Rcore=  1.791422

atom: _________________________________________________________________________

<basis_specs>
===============================================================================
N                    Z=   7    Mass=  14.010        Charge= 0.17977+309
Lmxo=1 Lmxkb= 3    BasisType=split      Semic=F
L=0  Nsemic=0  Cnfigmx=2
          n=1  nzeta=2  polorb=0
            splnorm:   0.15000    
               vcte:    0.0000    
               rinn:    0.0000    
                rcs:    0.0000      0.0000    
            lambdas:    1.0000      1.0000    
L=1  Nsemic=0  Cnfigmx=2
          n=1  nzeta=2  polorb=1
            splnorm:   0.15000    
               vcte:    0.0000    
               rinn:    0.0000    
                rcs:    0.0000      0.0000    
            lambdas:    1.0000      1.0000    
-------------------------------------------------------------------------------
L=0  Nkbl=1  erefs: 0.17977+309
L=1  Nkbl=1  erefs: 0.17977+309
L=2  Nkbl=1  erefs: 0.17977+309
L=3  Nkbl=1  erefs: 0.17977+309
===============================================================================
</basis_specs>

atom: Called for N                     (Z =   7)

read_vps: Pseudopotential generation method:
read_vps: ATM3      Troullier-Martins                       
Total valence charge:    5.00000

read_vps: Pseudopotential includes a core correction:
read_vps: Pseudo-core for xc-correction

xc_check: Exchange-correlation functional:
xc_check: GGA Perdew, Burke & Ernzerhof 1996
V l=0 = -2*Zval/r beyond r=  1.4606
V l=1 = -2*Zval/r beyond r=  1.4606
V l=2 = -2*Zval/r beyond r=  1.4606
V l=3 = -2*Zval/r beyond r=  1.4606
All V_l potentials equal beyond r=  1.4606
This should be close to max(r_c) in ps generation
All pots = -2*Zval/r beyond r=  1.4606

VLOCAL1: 99.0% of the norm of Vloc inside     20.347 Ry
VLOCAL1: 99.9% of the norm of Vloc inside     46.372 Ry
atom: Maximum radius for 4*pi*r*r*local-pseudopot. charge    1.76189
atom: Maximum radius for r*vlocal+2*Zval:    1.53550
GHOST: No ghost state for L =  0
GHOST: No ghost state for L =  1
GHOST: No ghost state for L =  2
GHOST: No ghost state for L =  3

KBgen: Kleinman-Bylander projectors: 
   l= 0   rc=  1.634559   el= -1.363963   Ekb=  5.296955   kbcos=  0.335621
   l= 1   rc=  1.614250   el= -0.521451   Ekb= -5.259161   kbcos= -0.433408
   l= 2   rc=  1.718383   el=  0.001991   Ekb= -1.271464   kbcos= -0.007566
   l= 3   rc=  1.761893   el=  0.003093   Ekb= -0.494769   kbcos= -0.001015

KBgen: Total number of  Kleinman-Bylander projectors:   16
atom: -------------------------------------------------------------------------

atom: SANKEY-TYPE ORBITALS:
atom: Selected multiple-zeta basis: split     

SPLIT: Orbitals with angular momentum L= 0

SPLIT: Basis orbitals for state 2s

SPLIT: PAO cut-off radius determined from an
SPLIT: energy shift=  0.007350 Ry

   izeta = 1
                 lambda =    1.000000
                     rc =    4.071465
                 energy =   -1.356470
                kinetic =    1.176977
    potential(screened) =   -2.533447
       potential(ionic) =   -8.057990

   izeta = 2
                 rmatch =    2.905100
              splitnorm =    0.150000
                 energy =   -1.158343
                kinetic =    1.813009
    potential(screened) =   -2.971352
       potential(ionic) =   -8.901931

SPLIT: Orbitals with angular momentum L= 1

SPLIT: Basis orbitals for state 2p

SPLIT: PAO cut-off radius determined from an
SPLIT: energy shift=  0.007350 Ry

   izeta = 1
                 lambda =    1.000000
                     rc =    4.972977
                 energy =   -0.513884
                kinetic =    3.441732
    potential(screened) =   -3.955616
       potential(ionic) =   -9.287901

   izeta = 2
                 rmatch =    3.054066
              splitnorm =    0.150000
                 energy =   -0.318226
                kinetic =    5.125348
    potential(screened) =   -5.443573
       potential(ionic) =  -11.380999

POLgen: Perturbative polarization orbital with L=  2

POLgen: Polarization orbital for state 2p

   izeta = 1
                     rc =    4.972977
                 energy =    1.607437
                kinetic =    3.268125
    potential(screened) =   -1.660688
       potential(ionic) =   -5.973652
atom: Total number of Sankey-type orbitals: 13

atm_pop: Valence configuration (for local Pseudopot. screening):
 2s( 2.00)                                                            
 2p( 3.00)                                                            
Vna: chval, zval:    5.00000   5.00000

Vna:  Cut-off radius for the neutral-atom potential:   4.972977
comcore: Pseudo-core radius Rcore=  1.554824

atom: _________________________________________________________________________

prinput: Basis input ----------------------------------------------------------

PAO.BasisType split     

%block ChemicalSpeciesLabel
    1    6 C                       # Species index, atomic number, species label
    2    7 N                       # Species index, atomic number, species label
%endblock ChemicalSpeciesLabel

%block PAO.Basis                 # Define Basis set
C                     2                    # Species label, number of l-shells
 n=2   0   2                         # n, l, Nzeta 
   4.633      3.432   
   1.000      1.000   
 n=2   1   2 P   1                   # n, l, Nzeta, Polarization, NzetaPol
   5.659      3.653   
   1.000      1.000   
N                     2                    # Species label, number of l-shells
 n=2   0   2                         # n, l, Nzeta 
   4.071      2.905   
   1.000      1.000   
 n=2   1   2 P   1                   # n, l, Nzeta, Polarization, NzetaPol
   4.973      3.054   
   1.000      1.000   
%endblock PAO.Basis

prinput: ----------------------------------------------------------------------

coor:   Atomic-coordinates input format  =     Cartesian coordinates
coor:                                          (in Angstroms)

siesta: Atomic coordinates (Bohr) and species
siesta:      2.23554   1.32097   0.00000  1        1
siesta:      4.56367   2.66461   0.00000  1        2
siesta:     32.50328  21.48508   0.00000  1        3
siesta:     34.83141  22.82873   0.00000  1        4
siesta:     34.83116  17.45226   0.00000  1        5
siesta:     37.15930  18.79590   0.00000  1        6
siesta:     32.50291  13.41944   0.00000  1        7
siesta:     34.83104  14.76308   0.00000  1        8
siesta:     30.17465   9.38661   0.00000  1        9
siesta:     32.50278  10.73026   0.00000  1       10
siesta:     27.84639   5.35379   0.00000  1       11
siesta:     30.17453   6.69743   0.00000  1       12
siesta:     27.84714  21.48508   0.00000  1       13
siesta:     30.17527  22.82873   0.00000  1       14
siesta:      6.89168   1.32097   0.00000  1       15
siesta:      9.21981   2.66461   0.00000  1       16
siesta:     11.54782   1.32097   0.00000  1       17
siesta:     13.87595   2.66461   0.00000  1       18
siesta:     16.20396   1.32097   0.00000  1       19
siesta:     18.53210   2.66461   0.00000  1       20
siesta:     23.19013   2.66461   0.00000  1       21
siesta:     25.51813   1.32097   0.00000  1       22
siesta:     27.84627   2.66461   0.00000  1       23
siesta:      6.89193   6.69743   0.00000  1       24
siesta:      9.21994   5.35379   0.00000  1       25
siesta:     11.54807   6.69743   0.00000  1       26
siesta:     13.87608   5.35379   0.00000  1       27
siesta:     16.20421   6.69743   0.00000  1       28
siesta:     18.53411   5.35379   0.00000  1       29
siesta:     23.19025   5.35379   0.00000  1       30
siesta:     25.51838   6.69743   0.00000  1       31
siesta:      9.22019  10.73026   0.00000  1       32
siesta:     11.54820   9.38661   0.00000  1       33
siesta:     13.87633  10.73026   0.00000  1       34
siesta:     18.53247  10.73026   0.00000  1       35
siesta:     20.86237   9.38661   0.00000  1       36
siesta:     23.19050  10.73026   0.00000  1       37
siesta:      9.22031  13.41944   0.00000  1       38
siesta:     11.54845  14.76308   0.00000  1       39
siesta:     13.87645  13.41944   0.00000  1       40
siesta:     16.20459  14.76308   0.00000  1       41
siesta:     18.53448  13.41944   0.00000  1       42
siesta:     20.86262  14.76308   0.00000  1       43
siesta:     13.87670  18.79590   0.00000  1       44
siesta:     16.20471  17.45226   0.00000  1       45
siesta:     18.53284  18.79590   0.00000  1       46
siesta:     13.87683  21.48508   0.00000  1       47
siesta:     16.20496  22.82873   0.00000  1       48
siesta:     18.53486  21.48508   0.00000  1       49
siesta:     20.86299  22.82873   0.00000  1       50
siesta:     27.84664  10.73026   0.00000  1       51
siesta:     23.19063  13.41944   0.00000  1       52
siesta:     25.51876  14.76308   0.00000  1       53
siesta:     23.19088  18.79590   0.00000  1       54
siesta:     27.84677  13.41944   0.00000  1       55
siesta:     30.17490  14.76308   0.00000  1       56
siesta:     25.51888  17.45226   0.00000  1       57
siesta:     27.84702  18.79590   0.00000  1       58
siesta:     23.19100  21.48508   0.00000  1       59
siesta:     25.51913  22.82873   0.00000  1       60
siesta:     32.50316  18.79590   0.00000  1       61
siesta:     37.16131  21.48508   0.00000  1       62
siesta:     39.48945  22.82873   0.00000  1       63
siesta:     20.86199   1.32097   0.00000  2       64
siesta:      4.56380   5.35379   0.00000  2       65
siesta:     20.86224   6.69743   0.00000  2       66
siesta:      6.89205   9.38661   0.00000  2       67
siesta:     16.20434   9.38661   0.00000  2       68
siesta:     11.54857  17.45226   0.00000  2       69
siesta:     25.51851   9.38661   0.00000  2       70
siesta:     20.86274  17.45226   0.00000  2       71
siesta:     30.17503  17.45226   0.00000  2       72

siesta: System type = slab      

initatomlists: Number of atoms, orbitals, and projectors:     72   936  1152

siesta: ******************** Simulation parameters ****************************
siesta:
siesta: The following are some of the parameters of the simulation.
siesta: A complete list of the parameters used, including default values,
siesta: can be found in file out.fdf
siesta:
redata: Non-Collinear-spin run           =     F
redata: SpinPolarized (Up/Down) run      =     F
redata: Number of spin components        =     1
redata: Long output                      =     F
redata: Number of Atomic Species         =        2
redata: Charge density info will appear in .RHO file
redata: Write Mulliken Pop.              =     NO
redata: Mesh Cutoff                      =   200.0000  Ry
redata: Net charge of the system         =     0.0000 |e|
redata: Max. number of SCF Iter          =      500
redata: SCF convergence failure will abort job
redata: Performing Pulay mixing using    =    10 iterations
redata: Mix DM in first SCF step ?       =     F
redata: Write Pulay info on disk?        =     F
redata: Discard 1st Pulay DM after  kick =     F
redata: New DM Mixing Weight             =     0.0500
redata: New DM Occupancy tolerance       = 0.000000000001
redata: No kicks to SCF
redata: DM Mixing Weight for Kicks       =     0.5000
redata: DM Tolerance for SCF             =     0.000100
redata: Require Energy convergence for SCF =     F
redata: DM Energy tolerance for SCF      =     0.000100 eV
redata: Require Harris convergence for SCF =     F
redata: DM Harris energy tolerance for SCF =     0.000100 eV
redata: Using Saved Data (generic)   =     F
redata: Use continuation files for DM    =     T
redata: Neglect nonoverlap interactions  =     F
redata: Method of Calculation            =     Diagonalization
redata: Divide and Conquer               =     T
redata: Electronic Temperature           =     0.0019  Ry
redata: Fix the spin of the system       =     F
redata: Dynamics option                  =     Verlet MD run
redata: Initial MD time step             =        1
redata:   Final MD time step             =        1
redata: Length of MD time step           =     1.0000  fs
redata: Initial Temperature of MD run    =     0.0000  K
redata: Perform a MD quench              =     F
redata: ***********************************************************************
Total number of electrons:   297.000000
Total ionic charge:   297.000000

* ProcessorY, Blocksize:    2  24

k-point displ. along   1 input, could be:     0.00    0.50
k-point displ. along   2 input, could be:     0.00    0.50
 Kpoints in:          364 . Kpoints trimmed:          352

siesta: k-grid: Number of k-points =   352
siesta: k-grid: Cutoff (effective) =     5.000 Ang
siesta: k-grid: Supercell and displacements
siesta: k-grid:   26   0   0      0.000
siesta: k-grid:    0  26   0      0.000
siesta: k-grid:    0   0   1      0.000
Naive supercell factors:     2    2    2

superc: Internal auxiliary supercell:     2 x     2 x     2  =       8
superc: Number of atoms, orbitals, and projectors:    576   7488   9216

* Maximum dynamic memory allocated =     6 MB

siesta:                 ==============================
                            Begin MD step =      1
                        ==============================

superc: Internal auxiliary supercell:     2 x     2 x     2  =       8
superc: Number of atoms, orbitals, and projectors:    576   7488   9216

outcell: Unit cell vectors (Ang):
       14.785000    0.000000    0.000000
        7.393000   12.805052    0.000000
        0.000000    0.000000   10.000000

outcell: Cell vector modules (Ang)   :   14.785000   14.786000   10.000000
outcell: Cell angles (23,13,12) (deg):     90.0000     90.0000     60.0000
outcell: Cell volume (Ang**3)        :   1893.2269
New_DM. Step:     1
Initializing Density Matrix...

InitMesh: MESH =   120 x   120 x    90 =     1296000
InitMesh: Mesh cutoff (required, used) =   200.000   223.865 Ry

* Maximum dynamic memory allocated =   187 MB

stepf: Fermi-Dirac step function

siesta: Program's energy decomposition (eV):
siesta: Ebs     =     -4703.650209
siesta: Eions   =     19849.732669
siesta: Ena     =      4064.192889
siesta: Ekin    =      7133.479856
siesta: Enl     =       -33.853808
siesta: DEna    =        -0.000012
siesta: DUscf   =         0.000000
siesta: DUext   =         0.000000
siesta: Exc     =     -4161.735265
siesta: eta*DQ  =         0.000000
siesta: Emadel  =         0.000000
siesta: Emeta   =         0.000000
siesta: Emolmec =         0.000000
siesta: Ekinion =         0.000000
siesta: Eharris =    -12755.020165
siesta: Etot    =    -12847.649010
siesta: FreeEng =    -12847.649010

siesta: iscf   Eharris(eV)      E_KS(eV)   FreeEng(eV)   dDmax  Ef(eV)
siesta:    1   -12755.0202   -12847.6490   -12847.6490  1.9464 -4.8414
timer: Routine,Calls,Time,% = IterSCF        1    6654.142  99.84
elaps: Routine,Calls,Wall,% = IterSCF        1     833.085  99.88
siesta:    2   -12773.3057   -12726.9779   -12727.0151  0.5203 -3.1361
siesta:    3   -12753.0880   -12745.6174   -12745.6481  0.3664 -3.3299
siesta:    4   -12744.1982   -12743.4196   -12743.4487  0.2080 -3.2205
siesta:    5   -12741.4464   -12741.6029   -12741.6412  0.1419 -3.1654
siesta:    6   -12740.5022   -12739.9067   -12739.9448  0.0858 -3.1708
siesta:    7   -12740.8107   -12738.7316   -12738.7674  0.0665 -3.2500
siesta:    8   -12740.4968   -12738.4480   -12738.4837  0.0550 -3.3587
siesta:    9   -12740.2653   -12738.4606   -12738.4949  0.0337 -3.4179
siesta:   10   -12740.1410   -12738.7252   -12738.7595  0.0136 -3.4497
siesta:   11   -12740.1288   -12738.8501   -12738.8856  0.0123 -3.4501
siesta:   12   -12740.1178   -12739.1599   -12739.1954  0.0056 -3.4500
siesta:   13   -12740.1170   -12739.3766   -12739.4123  0.0042 -3.4494
siesta:   14   -12740.1167   -12739.6125   -12739.6482  0.0039 -3.4486
siesta:   15   -12740.1164   -12739.9192   -12739.9549  0.0022 -3.4465
siesta:   16   -12740.1163   -12739.9985   -12740.0341  0.0013 -3.4459
siesta:   17   -12740.1163   -12740.1093   -12740.1449  0.0008 -3.4438
siesta:   18   -12740.1163   -12740.1312   -12740.1669  0.0005 -3.4432
siesta:   19   -12740.1163   -12740.1226   -12740.1582  0.0003 -3.4432
siesta:   20   -12740.1163   -12740.1176   -12740.1533  0.0002 -3.4431
siesta:   21   -12740.1162   -12740.1148   -12740.1504  0.0001 -3.4430
siesta:   22   -12740.1162   -12740.1143   -12740.1500  0.0001 -3.4430

siesta: E_KS(eV) =           -12740.1165

siesta: E_KS - E_eggbox =    -12740.1165

siesta: Atomic forces (eV/Ang):
----------------------------------------
   Tot    0.213764   -0.297642    0.000000
----------------------------------------
   Max    1.072224
   Res    0.277166    sqrt( Sum f_i^2 / 3N )
----------------------------------------
   Max    1.072224    constrained

Stress-tensor-Voigt (kbar):        0.61        0.36        0.14        0.11        0.00        0.00
(Free)E + p*V (eV/cell)   -12740.5910
Target enthalpy (eV/cell)   -12740.1521

siesta: Stress tensor (static) (eV/Ang**3):
         0.000382    0.000067    0.000000
         0.000067    0.000224    0.000000
         0.000000    0.000000    0.000090

siesta: Pressure (static):         -0.37138505  kBar

siesta: Stress tensor (total) (eV/Ang**3):
         0.000382    0.000067    0.000000
         0.000067    0.000224    0.000000
         0.000000    0.000000    0.000090

siesta: Pressure (total):         -0.37138505  kBar

siesta: Temp_ion =       0.000 K

* Maximum dynamic memory allocated =   202 MB

siesta: Program's energy decomposition (eV):
siesta: Ebs     =     -4185.000956
siesta: Eions   =     19849.732669
siesta: Ena     =      4064.192889
siesta: Ekin    =      8580.201860
siesta: Enl     =     -1059.116314
siesta: DEna    =      -247.531731
siesta: DUscf   =        22.414732
siesta: DUext   =         0.000000
siesta: Exc     =     -4250.545241
siesta: eta*DQ  =         0.000000
siesta: Emadel  =         0.000000
siesta: Emeta   =         0.000000
siesta: Emolmec =         0.000000
siesta: Ekinion =         0.000000
siesta: Eharris =    -12740.116244
siesta: Etot    =    -12740.116474
siesta: FreeEng =    -12740.152132

siesta: Final energy (eV):
siesta:  Band Struct. =   -4185.000956
siesta:       Kinetic =    8580.201860
siesta:       Hartree =   24803.787076
siesta:    Ext. field =       0.000000
siesta:   Exch.-corr. =   -4250.545241
siesta:  Ion-electron =  -57583.741344
siesta:       Ion-ion =   15710.181176
siesta:       Ekinion =       0.000000
siesta:         Total =  -12740.116474

siesta: Atomic forces (eV/Ang):
siesta:      1    0.206163    0.516747    0.000000
siesta:      2   -0.027098    0.414715    0.000000
siesta:      3    0.093842   -0.127525    0.000000
siesta:      4   -0.033656    0.325462    0.000000
siesta:      5    0.009886   -0.513540    0.000000
siesta:      6    0.332568    0.046147    0.000000
siesta:      7    0.322582   -0.091701    0.000000
siesta:      8   -0.004601    0.176821    0.000000
siesta:      9    0.218637    0.071266    0.000000
siesta:     10    0.018591    0.190877    0.000000
siesta:     11    0.657812    0.464843    0.000000
siesta:     12    0.228769   -1.072224    0.000000
siesta:     13    0.615031   -0.256423    0.000000
siesta:     14   -0.381307    0.333888    0.000000
siesta:     15   -0.135372    0.046877    0.000000
siesta:     16    0.263951   -0.227772    0.000000
siesta:     17   -0.231023    0.219744    0.000000
siesta:     18    0.257080    0.135540    0.000000
siesta:     19    0.319332   -0.340297    0.000000
siesta:     20    0.666460    0.316091    0.000000
siesta:     21   -0.831014    0.301670    0.000000
siesta:     22   -0.007786   -0.142685    0.000000
siesta:     23   -0.573508   -0.146054    0.000000
siesta:     24   -0.662474    0.123356    0.000000
siesta:     25   -0.236165    0.501400    0.000000
siesta:     26   -0.114331   -0.542288    0.000000
siesta:     27   -0.100607    0.323301    0.000000
siesta:     28    0.610776    0.426742    0.000000
siesta:     29    0.421863    0.198654    0.000000
siesta:     30   -0.432334    0.191559    0.000000
siesta:     31   -0.514379    0.397808    0.000000
siesta:     32   -0.070789   -0.416611    0.000000
siesta:     33    0.089581    0.351822    0.000000
siesta:     34    0.106130   -0.372848    0.000000
siesta:     35    0.105650   -0.731602    0.000000
siesta:     36   -0.041168   -0.577737    0.000000
siesta:     37   -0.041832   -0.739496    0.000000
siesta:     38   -0.274321    0.233400    0.000000
siesta:     39   -0.026848    0.180749    0.000000
siesta:     40    0.209766    0.234716    0.000000
siesta:     41    0.110143   -0.081442    0.000000
siesta:     42   -0.204811    0.284935    0.000000
siesta:     43    0.037268    0.342955    0.000000
siesta:     44   -0.263598   -0.121684    0.000000
siesta:     45   -0.102688   -0.317782    0.000000
siesta:     46    0.603857   -0.042837    0.000000
siesta:     47   -0.693852   -0.203465    0.000000
siesta:     48    0.378946   -0.214761    0.000000
siesta:     49    0.218206   -0.430174    0.000000
siesta:     50   -0.223242    0.450123    0.000000
siesta:     51   -0.126734   -0.757570    0.000000
siesta:     52    0.130945    0.316837    0.000000
siesta:     53   -0.041660   -0.245586    0.000000
siesta:     54   -0.577307   -0.091954    0.000000
siesta:     55   -0.164622    0.411636    0.000000
siesta:     56   -0.073553    0.357847    0.000000
siesta:     57    0.129478   -0.187701    0.000000
siesta:     58    0.248338   -0.094188    0.000000
siesta:     59   -0.122307   -0.310934    0.000000
siesta:     60   -0.175973   -0.370377    0.000000
siesta:     61   -0.342349    0.106706    0.000000
siesta:     62   -0.093461   -0.118774    0.000000
siesta:     63    0.399697    0.206006    0.000000
siesta:     64    0.063424   -0.277107    0.000000
siesta:     65    0.252085    0.887485    0.000000
siesta:     66    0.057468    0.062019    0.000000
siesta:     67   -0.251442   -0.496874    0.000000
siesta:     68   -0.176044    0.185991    0.000000
siesta:     69   -0.117514   -0.069454    0.000000
siesta:     70    0.203699    0.396171    0.000000
siesta:     71   -0.018710   -0.095319    0.000000
siesta:     72    0.136223   -0.203761    0.000000
siesta: ----------------------------------------
siesta:    Tot    0.213764   -0.297642    0.000000

siesta: Stress tensor (static) (eV/Ang**3):
siesta:     0.000382    0.000067    0.000000
siesta:     0.000067    0.000224    0.000000
siesta:     0.000000    0.000000    0.000090

siesta: Cell volume =       1893.226895 Ang**3

siesta: Pressure (static):
siesta:                Solid            Molecule  Units
siesta:          -0.00000252          0.00000608  Ry/Bohr**3
siesta:          -0.00023180          0.00055824  eV/Ang**3
siesta:          -0.37138505          0.89441108  kBar
(Free)E+ p_basis*V_orbitals  =      -12710.701185
(Free)Eharris+ p_basis*V_orbitals  =      -12710.703101

siesta: Electric dipole (a.u.)  =    0.000000    0.000000    0.000000
siesta: Electric dipole (Debye) =    0.000000    0.000000    0.000000

* Maximum dynamic memory allocated : Node    0 =   202 MB
* Maximum dynamic memory allocated : Node    1 =    74 MB
* Maximum dynamic memory allocated : Node    2 =    76 MB
* Maximum dynamic memory allocated : Node    3 =   192 MB
* Maximum dynamic memory allocated : Node    4 =   202 MB
* Maximum dynamic memory allocated : Node    5 =    73 MB
* Maximum dynamic memory allocated : Node    6 =    75 MB
* Maximum dynamic memory allocated : Node    7 =   187 MB

* Maximum memory occured during matrixMtoO                    

timer: CPU execution times:
timer:  Routine       Calls   Time/call    Tot.time        %
timer:  siesta            1  144948.994  144948.994   100.00
timer:  Setup             1       3.072       3.072     0.00
timer:  bands             1       0.011       0.011     0.00
timer:  writewave         1       0.017       0.017     0.00
timer:  KSV_init          1       0.002       0.002     0.00
timer:  IterMD            1  144937.800  144937.800    99.99
timer:  hsparse           1       0.260       0.260     0.00
timer:  overlap           1       6.355       6.355     0.00
timer:  IterSCF          22    6580.678  144774.913    99.88
timer:  kinefsm           2       3.258       6.516     0.00
timer:  nlefsm            2      18.827      37.654     0.03
timer:  DHSCF            23      90.868    2089.971     1.44
timer:  DHSCF1            1       0.759       0.759     0.00
timer:  DHSCF2            1      32.817      32.817     0.02
timer:  REORD           186       0.010       1.841     0.00
timer:  POISON           24       2.247      53.932     0.04
timer:  DHSCF3           23      88.006    2024.148     1.40
timer:  rhoofd           23      16.297     374.831     0.26
timer:  cellXC           23       3.577      82.276     0.06
timer:  vmat             23      45.688    1050.816     0.72
timer:  MolMec            2       0.000       0.000     0.00
timer:  diagon           22    6488.195  142740.286    98.48
timer:  c-eigval       7744       6.690   51805.837    35.74
timer:  c-buildHS      7744       0.117     909.512     0.63
timer:  cdiag         15488       6.874  106461.275    73.45
timer:  cdiag1        15488       0.427    6608.966     4.56
timer:  cdiag2        15488       1.911   29596.299    20.42
timer:  cdiag3        15488       3.958   61298.322    42.29
timer:  cdiag4        15488       0.203    3147.593     2.17
timer:  c-eigvec       7744       7.247   56123.211    38.72
timer:  c-buildD       7744       4.487   34746.134    23.97
timer:  DHSCF4            1      31.012      31.012     0.02
timer:  dfscf             1      29.193      29.193     0.02
timer:  overfsm           1       0.375       0.375     0.00
timer:  optical           1       7.104       7.104     0.00
  

elaps: ELAPSED times:
elaps:  Routine       Calls   Time/call    Tot.time        %
elaps:  siesta            1   18139.307   18139.307   100.00
elaps:  Setup             1       0.383       0.383     0.00
elaps:  bands             1       0.001       0.001     0.00
elaps:  writewave         1       0.002       0.002     0.00
elaps:  KSV_init          1       0.000       0.000     0.00
elaps:  IterMD            1   18137.908   18137.908    99.99
elaps:  hsparse           1       0.034       0.034     0.00
elaps:  overlap           1       0.523       0.523     0.00
elaps:  IterSCF          22     823.539   18117.865    99.88
elaps:  kinefsm           2       0.275       0.549     0.00
elaps:  nlefsm            2       2.447       4.895     0.03
elaps:  DHSCF            23      11.504     264.581     1.46
elaps:  DHSCF1            1       0.098       0.098     0.00
elaps:  DHSCF2            1       4.102       4.102     0.02
elaps:  REORD           186       0.001       0.245     0.00
elaps:  POISON           24       0.282       6.760     0.04
elaps:  DHSCF3           23      11.010     253.233     1.40
elaps:  rhoofd           23       3.521      80.979     0.45
elaps:  cellXC           23       0.447      10.277     0.06
elaps:  vmat             23       5.715     131.455     0.72
elaps:  MolMec            2       0.000       0.000     0.00
elaps:  diagon           22     811.977   17863.491    98.48
elaps:  c-eigval       7744       0.837    6481.678    35.73
elaps:  c-buildHS      7744       0.016     125.088     0.69
elaps:  cdiag         15488       0.847   13117.484    72.32
elaps:  cdiag1        15488       0.053     821.979     4.53
elaps:  cdiag2        15488       0.239    3703.106    20.41
elaps:  cdiag3        15488       0.496    7680.029    42.34
elaps:  cdiag4        15488       0.026     405.541     2.24
elaps:  c-eigvec       7744       0.884    6849.011    37.76
elaps:  c-buildD       7744       0.584    4523.371    24.94
elaps:  DHSCF4            1       6.982       6.982     0.04
elaps:  dfscf             1       6.607       6.607     0.04
elaps:  overfsm           1       0.048       0.048     0.00
elaps:  optical           1       0.000       0.000     0.00
  
>> End of run:   1-DEC-2015  13:23:36
