Siesta Version:                                        siesta-3.2-pl-3
Architecture  : x86_64-unknown-linux-gnu--unknown
Compiler flags: mpiifort -g -O2 -fPIC -xSSE4.1 -fp-model source -shared-intel 
PARALLEL version

* Running on    8 nodes in parallel
>> Start of run:   5-DEC-2015   6:07:55

                           ***********************       
                           *  WELCOME TO SIESTA  *       
                           ***********************       

reinit: Reading from standard input
************************** Dump of input data file ****************************
#(1) General system descriptors
SystemName            GRP_doping    # Descriptive name of the system
SystemLabel           GRP_doping    # Short name for naming files
%include STRUCT.fdf
%include KPT.fdf
%include BASIS.fdf
#%include TS.fdf # for transiesta calculation
#(4) DFT, Grid, SCF
XC.functional         GGA           # LDA or GGA (default = LDA)
XC.authors            PBE           # CA (Ceperley-Aldr) = PZ
                                    #    (Perdew-Zunger) - LDA - Default
                                    # PW92 (Perdew-Wang-92) - LDA
                                    # PBE (Perdew-Burke-Ernzerhof) - GGA
MeshCutoff            200.000000    Ry      # Default: 50.0 Ry ~ 0.444 Bohr
                                    #         100.0 Ry ~ 0.314 Bohr
MaxSCFIterations      500           # Default: 50
DM.MixingWeight       0.05          # Default: 0.25
DM.NumberPulay        10            # Default: 0
DM.PulayOnFile        F             # SystemLabel.P1, SystemLabel.P2
DM.Tolerance          1.d-4         # Default: 1.d-4
DM.UseSaveDM          .true.        # because of the bug
SCFMustConverge       .true.
NeglNonOverlapInt     F             # Default: F
#(5) Eigenvalue problem: order-N or diagonalization
SolutionMethod        Diagon        # or Transiesta
ElectronicTemperature 300.0 K       # Default: 300.0 K
#(6) Molecular dynamics and relaxations
#MD.TypeOfRun          CG            # Type of dynamics:
#MD.VariableCell       F
#MD.NumCGsteps         0           # 0 for single-point / 100 for gopt
#MD.MaxCGDispl         0.2 Bohr      # Default: 0.2 Bohr
#MD.MaxForceTol        0.02 eV/Ang   # Default: 0.04 eV/Ang
#MD.MaxStressTol       1.0 GPa       # Default: 1.0 GPa
# Geometry Constraints
#%block GeometryConstraints
#	position from 1 to 44
#%endblock GeometryConstraints
************************** End of input data file *****************************

reinit: -----------------------------------------------------------------------
reinit: System Name: GRP_doping
reinit: -----------------------------------------------------------------------
reinit: System Label: GRP_doping                                                  
reinit: -----------------------------------------------------------------------

initatom: Reading input for the pseudopotentials and atomic orbitals ----------
 Species number:            1  Label: N Atomic number:           7
 Species number:            2  Label: C Atomic number:           6
Ground state valence configuration:   2s02  2p03
Reading pseudopotential information in formatted form from N.psf

Valence configuration for pseudopotential generation:
2s( 2.00) rc: 1.48
2p( 3.00) rc: 1.48
3d( 0.00) rc: 1.48
4f( 0.00) rc: 1.48
Ground state valence configuration:   2s02  2p02
Reading pseudopotential information in formatted form from C.psf

Valence configuration for pseudopotential generation:
2s( 2.00) rc: 1.54
2p( 2.00) rc: 1.54
3d( 0.00) rc: 1.54
4f( 0.00) rc: 1.54
For N, standard SIESTA heuristics set lmxkb to 3
 (one more than the basis l, including polarization orbitals).
Use PS.lmax or PS.KBprojectors blocks to override.
For C, standard SIESTA heuristics set lmxkb to 3
 (one more than the basis l, including polarization orbitals).
Use PS.lmax or PS.KBprojectors blocks to override.

<basis_specs>
===============================================================================
N                    Z=   7    Mass=  14.010        Charge= 0.17977+309
Lmxo=1 Lmxkb= 3    BasisType=split      Semic=F
L=0  Nsemic=0  Cnfigmx=2
          n=1  nzeta=2  polorb=0
            splnorm:   0.15000    
               vcte:    0.0000    
               rinn:    0.0000    
                rcs:    0.0000      0.0000    
            lambdas:    1.0000      1.0000    
L=1  Nsemic=0  Cnfigmx=2
          n=1  nzeta=2  polorb=1
            splnorm:   0.15000    
               vcte:    0.0000    
               rinn:    0.0000    
                rcs:    0.0000      0.0000    
            lambdas:    1.0000      1.0000    
-------------------------------------------------------------------------------
L=0  Nkbl=1  erefs: 0.17977+309
L=1  Nkbl=1  erefs: 0.17977+309
L=2  Nkbl=1  erefs: 0.17977+309
L=3  Nkbl=1  erefs: 0.17977+309
===============================================================================
</basis_specs>

atom: Called for N                     (Z =   7)

read_vps: Pseudopotential generation method:
read_vps: ATM3      Troullier-Martins                       
Total valence charge:    5.00000

read_vps: Pseudopotential includes a core correction:
read_vps: Pseudo-core for xc-correction

xc_check: Exchange-correlation functional:
xc_check: GGA Perdew, Burke & Ernzerhof 1996
V l=0 = -2*Zval/r beyond r=  1.4606
V l=1 = -2*Zval/r beyond r=  1.4606
V l=2 = -2*Zval/r beyond r=  1.4606
V l=3 = -2*Zval/r beyond r=  1.4606
All V_l potentials equal beyond r=  1.4606
This should be close to max(r_c) in ps generation
All pots = -2*Zval/r beyond r=  1.4606

VLOCAL1: 99.0% of the norm of Vloc inside     20.347 Ry
VLOCAL1: 99.9% of the norm of Vloc inside     46.372 Ry
atom: Maximum radius for 4*pi*r*r*local-pseudopot. charge    1.76189
atom: Maximum radius for r*vlocal+2*Zval:    1.53550
GHOST: No ghost state for L =  0
GHOST: No ghost state for L =  1
GHOST: No ghost state for L =  2
GHOST: No ghost state for L =  3

KBgen: Kleinman-Bylander projectors: 
   l= 0   rc=  1.634559   el= -1.363963   Ekb=  5.296955   kbcos=  0.335621
   l= 1   rc=  1.614250   el= -0.521451   Ekb= -5.259161   kbcos= -0.433408
   l= 2   rc=  1.718383   el=  0.001991   Ekb= -1.271464   kbcos= -0.007566
   l= 3   rc=  1.761893   el=  0.003093   Ekb= -0.494769   kbcos= -0.001015

KBgen: Total number of  Kleinman-Bylander projectors:   16
atom: -------------------------------------------------------------------------

atom: SANKEY-TYPE ORBITALS:
atom: Selected multiple-zeta basis: split     

SPLIT: Orbitals with angular momentum L= 0

SPLIT: Basis orbitals for state 2s

SPLIT: PAO cut-off radius determined from an
SPLIT: energy shift=  0.007350 Ry

   izeta = 1
                 lambda =    1.000000
                     rc =    4.071465
                 energy =   -1.356470
                kinetic =    1.176977
    potential(screened) =   -2.533447
       potential(ionic) =   -8.057990

   izeta = 2
                 rmatch =    2.905100
              splitnorm =    0.150000
                 energy =   -1.158343
                kinetic =    1.813009
    potential(screened) =   -2.971352
       potential(ionic) =   -8.901931

SPLIT: Orbitals with angular momentum L= 1

SPLIT: Basis orbitals for state 2p

SPLIT: PAO cut-off radius determined from an
SPLIT: energy shift=  0.007350 Ry

   izeta = 1
                 lambda =    1.000000
                     rc =    4.972977
                 energy =   -0.513884
                kinetic =    3.441732
    potential(screened) =   -3.955616
       potential(ionic) =   -9.287901

   izeta = 2
                 rmatch =    3.054066
              splitnorm =    0.150000
                 energy =   -0.318226
                kinetic =    5.125348
    potential(screened) =   -5.443573
       potential(ionic) =  -11.380999

POLgen: Perturbative polarization orbital with L=  2

POLgen: Polarization orbital for state 2p

   izeta = 1
                     rc =    4.972977
                 energy =    1.607437
                kinetic =    3.268125
    potential(screened) =   -1.660688
       potential(ionic) =   -5.973652
atom: Total number of Sankey-type orbitals: 13

atm_pop: Valence configuration (for local Pseudopot. screening):
 2s( 2.00)                                                            
 2p( 3.00)                                                            
Vna: chval, zval:    5.00000   5.00000

Vna:  Cut-off radius for the neutral-atom potential:   4.972977
comcore: Pseudo-core radius Rcore=  1.554824

atom: _________________________________________________________________________

<basis_specs>
===============================================================================
C                    Z=   6    Mass=  12.010        Charge= 0.17977+309
Lmxo=1 Lmxkb= 3    BasisType=split      Semic=F
L=0  Nsemic=0  Cnfigmx=2
          n=1  nzeta=2  polorb=0
            splnorm:   0.15000    
               vcte:    0.0000    
               rinn:    0.0000    
                rcs:    0.0000      0.0000    
            lambdas:    1.0000      1.0000    
L=1  Nsemic=0  Cnfigmx=2
          n=1  nzeta=2  polorb=1
            splnorm:   0.15000    
               vcte:    0.0000    
               rinn:    0.0000    
                rcs:    0.0000      0.0000    
            lambdas:    1.0000      1.0000    
-------------------------------------------------------------------------------
L=0  Nkbl=1  erefs: 0.17977+309
L=1  Nkbl=1  erefs: 0.17977+309
L=2  Nkbl=1  erefs: 0.17977+309
L=3  Nkbl=1  erefs: 0.17977+309
===============================================================================
</basis_specs>

atom: Called for C                     (Z =   6)

read_vps: Pseudopotential generation method:
read_vps: ATM3      Troullier-Martins                       
Total valence charge:    4.00000

read_vps: Pseudopotential includes a core correction:
read_vps: Pseudo-core for xc-correction

xc_check: Exchange-correlation functional:
xc_check: GGA Perdew, Burke & Ernzerhof 1996
V l=0 = -2*Zval/r beyond r=  1.5227
V l=1 = -2*Zval/r beyond r=  1.5227
V l=2 = -2*Zval/r beyond r=  1.5227
V l=3 = -2*Zval/r beyond r=  1.5038
All V_l potentials equal beyond r=  1.5227
This should be close to max(r_c) in ps generation
All pots = -2*Zval/r beyond r=  1.5227

VLOCAL1: 99.0% of the norm of Vloc inside     18.722 Ry
VLOCAL1: 99.9% of the norm of Vloc inside     42.668 Ry
atom: Maximum radius for 4*pi*r*r*local-pseudopot. charge    1.83678
atom: Maximum radius for r*vlocal+2*Zval:    1.58088
GHOST: No ghost state for L =  0
GHOST: No ghost state for L =  1
GHOST: No ghost state for L =  2
GHOST: No ghost state for L =  3

KBgen: Kleinman-Bylander projectors: 
   l= 0   rc=  1.704034   el= -1.009801   Ekb=  5.335044   kbcos=  0.316824
   l= 1   rc=  1.704034   el= -0.388707   Ekb= -3.785862   kbcos= -0.366464
   l= 2   rc=  1.791422   el=  0.001971   Ekb= -0.970471   kbcos= -0.009212
   l= 3   rc=  1.859892   el=  0.003065   Ekb= -0.399525   kbcos= -0.001223

KBgen: Total number of  Kleinman-Bylander projectors:   16
atom: -------------------------------------------------------------------------

atom: SANKEY-TYPE ORBITALS:
atom: Selected multiple-zeta basis: split     

SPLIT: Orbitals with angular momentum L= 0

SPLIT: Basis orbitals for state 2s

SPLIT: PAO cut-off radius determined from an
SPLIT: energy shift=  0.007350 Ry

   izeta = 1
                 lambda =    1.000000
                     rc =    4.632753
                 energy =   -1.002270
                kinetic =    0.855760
    potential(screened) =   -1.858031
       potential(ionic) =   -5.417575

   izeta = 2
                 rmatch =    3.431921
              splitnorm =    0.150000
                 energy =   -0.867111
                kinetic =    1.300804
    potential(screened) =   -2.167915
       potential(ionic) =   -5.962684

SPLIT: Orbitals with angular momentum L= 1

SPLIT: Basis orbitals for state 2p

SPLIT: PAO cut-off radius determined from an
SPLIT: energy shift=  0.007350 Ry

   izeta = 1
                 lambda =    1.000000
                     rc =    5.658549
                 energy =   -0.381140
                kinetic =    2.399701
    potential(screened) =   -2.780841
       potential(ionic) =   -6.206085

   izeta = 2
                 rmatch =    3.653288
              splitnorm =    0.150000
                 energy =   -0.249149
                kinetic =    3.542762
    potential(screened) =   -3.791911
       potential(ionic) =   -7.581078

POLgen: Perturbative polarization orbital with L=  2

POLgen: Polarization orbital for state 2p

   izeta = 1
                     rc =    5.658549
                 energy =    1.109913
                kinetic =    2.304789
    potential(screened) =   -1.194876
       potential(ionic) =   -4.013592
atom: Total number of Sankey-type orbitals: 13

atm_pop: Valence configuration (for local Pseudopot. screening):
 2s( 2.00)                                                            
 2p( 2.00)                                                            
Vna: chval, zval:    4.00000   4.00000

Vna:  Cut-off radius for the neutral-atom potential:   5.658549
comcore: Pseudo-core radius Rcore=  1.791422

atom: _________________________________________________________________________

prinput: Basis input ----------------------------------------------------------

PAO.BasisType split     

%block ChemicalSpeciesLabel
    1    7 N                       # Species index, atomic number, species label
    2    6 C                       # Species index, atomic number, species label
%endblock ChemicalSpeciesLabel

%block PAO.Basis                 # Define Basis set
N                     2                    # Species label, number of l-shells
 n=2   0   2                         # n, l, Nzeta 
   4.071      2.905   
   1.000      1.000   
 n=2   1   2 P   1                   # n, l, Nzeta, Polarization, NzetaPol
   4.973      3.054   
   1.000      1.000   
C                     2                    # Species label, number of l-shells
 n=2   0   2                         # n, l, Nzeta 
   4.633      3.432   
   1.000      1.000   
 n=2   1   2 P   1                   # n, l, Nzeta, Polarization, NzetaPol
   5.659      3.653   
   1.000      1.000   
%endblock PAO.Basis

prinput: ----------------------------------------------------------------------

coor:   Atomic-coordinates input format  =     Cartesian coordinates
coor:                                          (in Angstroms)

siesta: Atomic coordinates (Bohr) and species
siesta:      2.23554   1.32097   0.00000  1        1
siesta:     32.50328  21.48508   0.00000  1        2
siesta:     37.15930  18.79590   0.00000  1        3
siesta:     32.50278  10.73026   0.00000  1        4
siesta:      9.21981   2.66461   0.00000  1        5
siesta:     11.54782   1.32097   0.00000  1        6
siesta:     18.53210   2.66461   0.00000  1        7
siesta:     20.86199   1.32097   0.00000  1        8
siesta:     27.84627   2.66461   0.00000  1        9
siesta:      4.56380   5.35379   0.00000  1       10
siesta:     13.87608   5.35379   0.00000  1       11
siesta:     23.19025   5.35379   0.00000  1       12
siesta:      6.89205   9.38661   0.00000  1       13
siesta:     13.87633  10.73026   0.00000  1       14
siesta:     16.20434   9.38661   0.00000  1       15
siesta:     23.19050  10.73026   0.00000  1       16
siesta:      9.22031  13.41944   0.00000  1       17
siesta:     18.53448  13.41944   0.00000  1       18
siesta:     11.54857  17.45226   0.00000  1       19
siesta:     18.53284  18.79590   0.00000  1       20
siesta:     13.87683  21.48508   0.00000  1       21
siesta:     25.51851   9.38661   0.00000  1       22
siesta:     20.86274  17.45226   0.00000  1       23
siesta:     27.84677  13.41944   0.00000  1       24
siesta:     27.84702  18.79590   0.00000  1       25
siesta:     23.19100  21.48508   0.00000  1       26
siesta:     30.17503  17.45226   0.00000  1       27
siesta:      4.56367   2.66461   0.00000  2       28
siesta:     34.83141  22.82873   0.00000  2       29
siesta:     34.83116  17.45226   0.00000  2       30
siesta:     32.50291  13.41944   0.00000  2       31
siesta:     34.83104  14.76308   0.00000  2       32
siesta:     30.17465   9.38661   0.00000  2       33
siesta:     27.84639   5.35379   0.00000  2       34
siesta:     30.17453   6.69743   0.00000  2       35
siesta:     27.84714  21.48508   0.00000  2       36
siesta:     30.17527  22.82873   0.00000  2       37
siesta:      6.89168   1.32097   0.00000  2       38
siesta:     13.87595   2.66461   0.00000  2       39
siesta:     16.20396   1.32097   0.00000  2       40
siesta:     23.19013   2.66461   0.00000  2       41
siesta:     25.51813   1.32097   0.00000  2       42
siesta:      6.89193   6.69743   0.00000  2       43
siesta:      9.21994   5.35379   0.00000  2       44
siesta:     11.54807   6.69743   0.00000  2       45
siesta:     16.20421   6.69743   0.00000  2       46
siesta:     18.53411   5.35379   0.00000  2       47
siesta:     20.86224   6.69743   0.00000  2       48
siesta:     25.51838   6.69743   0.00000  2       49
siesta:      9.22019  10.73026   0.00000  2       50
siesta:     11.54820   9.38661   0.00000  2       51
siesta:     18.53247  10.73026   0.00000  2       52
siesta:     20.86237   9.38661   0.00000  2       53
siesta:     11.54845  14.76308   0.00000  2       54
siesta:     13.87645  13.41944   0.00000  2       55
siesta:     16.20459  14.76308   0.00000  2       56
siesta:     20.86262  14.76308   0.00000  2       57
siesta:     13.87670  18.79590   0.00000  2       58
siesta:     16.20471  17.45226   0.00000  2       59
siesta:     16.20496  22.82873   0.00000  2       60
siesta:     18.53486  21.48508   0.00000  2       61
siesta:     20.86299  22.82873   0.00000  2       62
siesta:     27.84664  10.73026   0.00000  2       63
siesta:     23.19063  13.41944   0.00000  2       64
siesta:     25.51876  14.76308   0.00000  2       65
siesta:     23.19088  18.79590   0.00000  2       66
siesta:     30.17490  14.76308   0.00000  2       67
siesta:     25.51888  17.45226   0.00000  2       68
siesta:     25.51913  22.82873   0.00000  2       69
siesta:     32.50316  18.79590   0.00000  2       70
siesta:     37.16131  21.48508   0.00000  2       71
siesta:     39.48945  22.82873   0.00000  2       72

siesta: System type = slab      

initatomlists: Number of atoms, orbitals, and projectors:     72   936  1152

siesta: ******************** Simulation parameters ****************************
siesta:
siesta: The following are some of the parameters of the simulation.
siesta: A complete list of the parameters used, including default values,
siesta: can be found in file out.fdf
siesta:
redata: Non-Collinear-spin run           =     F
redata: SpinPolarized (Up/Down) run      =     F
redata: Number of spin components        =     1
redata: Long output                      =     F
redata: Number of Atomic Species         =        2
redata: Charge density info will appear in .RHO file
redata: Write Mulliken Pop.              =     NO
redata: Mesh Cutoff                      =   200.0000  Ry
redata: Net charge of the system         =     0.0000 |e|
redata: Max. number of SCF Iter          =      500
redata: SCF convergence failure will abort job
redata: Performing Pulay mixing using    =    10 iterations
redata: Mix DM in first SCF step ?       =     F
redata: Write Pulay info on disk?        =     F
redata: Discard 1st Pulay DM after  kick =     F
redata: New DM Mixing Weight             =     0.0500
redata: New DM Occupancy tolerance       = 0.000000000001
redata: No kicks to SCF
redata: DM Mixing Weight for Kicks       =     0.5000
redata: DM Tolerance for SCF             =     0.000100
redata: Require Energy convergence for SCF =     F
redata: DM Energy tolerance for SCF      =     0.000100 eV
redata: Require Harris convergence for SCF =     F
redata: DM Harris energy tolerance for SCF =     0.000100 eV
redata: Using Saved Data (generic)   =     F
redata: Use continuation files for DM    =     T
redata: Neglect nonoverlap interactions  =     F
redata: Method of Calculation            =     Diagonalization
redata: Divide and Conquer               =     T
redata: Electronic Temperature           =     0.0019  Ry
redata: Fix the spin of the system       =     F
redata: Dynamics option                  =     Verlet MD run
redata: Initial MD time step             =        1
redata:   Final MD time step             =        1
redata: Length of MD time step           =     1.0000  fs
redata: Initial Temperature of MD run    =     0.0000  K
redata: Perform a MD quench              =     F
redata: ***********************************************************************
Total number of electrons:   315.000000
Total ionic charge:   315.000000

* ProcessorY, Blocksize:    2  24

k-point displ. along   1 input, could be:     0.00    0.50
k-point displ. along   2 input, could be:     0.00    0.50
 Kpoints in:          364 . Kpoints trimmed:          352

siesta: k-grid: Number of k-points =   352
siesta: k-grid: Cutoff (effective) =     5.000 Ang
siesta: k-grid: Supercell and displacements
siesta: k-grid:   26   0   0      0.000
siesta: k-grid:    0  26   0      0.000
siesta: k-grid:    0   0   1      0.000
Naive supercell factors:     2    2    2

superc: Internal auxiliary supercell:     2 x     2 x     2  =       8
superc: Number of atoms, orbitals, and projectors:    576   7488   9216

* Maximum dynamic memory allocated =     6 MB

siesta:                 ==============================
                            Begin MD step =      1
                        ==============================

superc: Internal auxiliary supercell:     2 x     2 x     2  =       8
superc: Number of atoms, orbitals, and projectors:    576   7488   9216

outcell: Unit cell vectors (Ang):
       14.785000    0.000000    0.000000
        7.393000   12.805052    0.000000
        0.000000    0.000000   10.000000

outcell: Cell vector modules (Ang)   :   14.785000   14.786000   10.000000
outcell: Cell angles (23,13,12) (deg):     90.0000     90.0000     60.0000
outcell: Cell volume (Ang**3)        :   1893.2269
New_DM. Step:     1
Initializing Density Matrix...

InitMesh: MESH =   120 x   120 x    90 =     1296000
InitMesh: Mesh cutoff (required, used) =   200.000   223.865 Ry

* Maximum dynamic memory allocated =   175 MB

stepf: Fermi-Dirac step function

siesta: Program's energy decomposition (eV):
siesta: Ebs     =     -4927.997452
siesta: Eions   =     22743.175864
siesta: Ena     =      4240.728618
siesta: Ekin    =      8644.090471
siesta: Enl     =      -529.727492
siesta: DEna    =        -0.000012
siesta: DUscf   =         0.000000
siesta: DUext   =         0.000000
siesta: Exc     =     -4604.886523
siesta: eta*DQ  =         0.000000
siesta: Emadel  =         0.000000
siesta: Emeta   =         0.000000
siesta: Emolmec =         0.000000
siesta: Ekinion =         0.000000
siesta: Eharris =    -14843.916540
siesta: Etot    =    -14992.970802
siesta: FreeEng =    -14992.970802

siesta: iscf   Eharris(eV)      E_KS(eV)   FreeEng(eV)   dDmax  Ef(eV)
siesta:    1   -14843.9165   -14992.9708   -14992.9708  1.9503 -3.4516
timer: Routine,Calls,Time,% = IterSCF        1    7477.578  99.85
elaps: Routine,Calls,Wall,% = IterSCF        1     936.063  99.85
siesta:    2   -14848.8419   -14822.7819   -14822.8069  0.2138 -2.1835
siesta:    3   -14841.3409   -14836.9512   -14836.9826  0.1694 -2.2535
siesta:    4   -14834.2105   -14833.4146   -14833.4392  0.1092 -2.3008
siesta:    5   -14832.4805   -14830.9679   -14830.9914  0.0558 -2.3751
siesta:    6   -14832.2316   -14831.1416   -14831.1657  0.0339 -2.4451
siesta:    7   -14832.1556   -14830.6032   -14830.6272  0.0064 -2.5677
siesta:    8   -14832.1378   -14831.2487   -14831.2726  0.0072 -2.5651
siesta:    9   -14832.1385   -14831.3527   -14831.3768  0.0059 -2.5626
siesta:   10   -14832.1360   -14831.7708   -14831.7950  0.0038 -2.5617
siesta:   11   -14832.1355   -14831.9852   -14832.0093  0.0007 -2.5606
siesta:   12   -14832.1355   -14832.0031   -14832.0271  0.0005 -2.5603
siesta:   13   -14832.1353   -14832.0527   -14832.0768  0.0004 -2.5602
siesta:   14   -14832.1353   -14832.0990   -14832.1231  0.0002 -2.5597
siesta:   15   -14832.1353   -14832.1160   -14832.1401  0.0001 -2.5597

siesta: E_KS(eV) =           -14832.1229

siesta: E_KS - E_eggbox =    -14832.1229

siesta: Atomic forces (eV/Ang):
----------------------------------------
   Tot    0.413764   -0.083947    0.000000
----------------------------------------
   Max    1.061184
   Res    0.420996    sqrt( Sum f_i^2 / 3N )
----------------------------------------
   Max    1.061184    constrained

Stress-tensor-Voigt (kbar):       60.95       58.96        0.35       -2.08        0.00        0.00
(Free)E + p*V (eV/cell)   -14879.5175
Target enthalpy (eV/cell)   -14832.1470

siesta: Stress tensor (static) (eV/Ang**3):
         0.038044   -0.001299    0.000000
        -0.001299    0.036798    0.000000
         0.000000    0.000000    0.000221

siesta: Pressure (static):        -40.08857667  kBar

siesta: Stress tensor (total) (eV/Ang**3):
         0.038044   -0.001299    0.000000
        -0.001299    0.036798    0.000000
         0.000000    0.000000    0.000221

siesta: Pressure (total):        -40.08857667  kBar

siesta: Temp_ion =       0.000 K

* Maximum dynamic memory allocated =   190 MB

siesta: Program's energy decomposition (eV):
siesta: Ebs     =     -4664.864130
siesta: Eions   =     22743.175864
siesta: Ena     =      4240.728618
siesta: Ekin    =     10095.229990
siesta: Enl     =     -1595.900544
siesta: DEna    =      -174.638990
siesta: DUscf   =        21.402662
siesta: DUext   =         0.000000
siesta: Exc     =     -4675.768764
siesta: eta*DQ  =         0.000000
siesta: Emadel  =         0.000000
siesta: Emeta   =         0.000000
siesta: Emolmec =         0.000000
siesta: Ekinion =         0.000000
siesta: Eharris =    -14832.135315
siesta: Etot    =    -14832.122892
siesta: FreeEng =    -14832.146963

siesta: Final energy (eV):
siesta:  Band Struct. =   -4664.864130
siesta:       Kinetic =   10095.229990
siesta:       Hartree =   28284.847501
siesta:    Ext. field =       0.000000
siesta:   Exch.-corr. =   -4675.768764
siesta:  Ion-electron =  -66046.779101
siesta:       Ion-ion =   17510.347482
siesta:       Ekinion =       0.000000
siesta:         Total =  -14832.122892

siesta: Atomic forces (eV/Ang):
siesta:      1   -0.565154    0.280862    0.000000
siesta:      2   -0.657830    0.365280    0.000000
siesta:      3   -0.135892    0.148060    0.000000
siesta:      4   -0.146496    0.147911    0.000000
siesta:      5   -0.156198    0.148585    0.000000
siesta:      6   -0.543479    0.277973    0.000000
siesta:      7   -0.123647    0.147905    0.000000
siesta:      8   -0.577600    0.279991    0.000000
siesta:      9   -0.144530    0.149601    0.000000
siesta:     10   -0.674366    0.360571    0.000000
siesta:     11   -0.657984    0.359130    0.000000
siesta:     12   -0.663427    0.356268    0.000000
siesta:     13   -0.558259    0.298674    0.000000
siesta:     14   -0.155936    0.150476    0.000000
siesta:     15   -0.542267    0.298992    0.000000
siesta:     16   -0.159479    0.150936    0.000000
siesta:     17   -0.672890    0.362507    0.000000
siesta:     18   -0.696617    0.366297    0.000000
siesta:     19   -0.559873    0.296578    0.000000
siesta:     20   -0.124646    0.145009    0.000000
siesta:     21   -0.644898    0.361832    0.000000
siesta:     22   -0.549472    0.296453    0.000000
siesta:     23   -0.570695    0.297863    0.000000
siesta:     24   -0.662451    0.359003    0.000000
siesta:     25   -0.156622    0.150737    0.000000
siesta:     26   -0.662507    0.362302    0.000000
siesta:     27   -0.546951    0.297883    0.000000
siesta:     28    0.555357    0.752676    0.000000
siesta:     29   -0.335208   -0.845428    0.000000
siesta:     30    0.183473    0.085199    0.000000
siesta:     31    0.012029   -0.215964    0.000000
siesta:     32    1.046848   -0.592054    0.000000
siesta:     33    0.182854    0.080643    0.000000
siesta:     34    0.010977   -0.216087    0.000000
siesta:     35    1.046368   -0.591374    0.000000
siesta:     36    0.011291   -0.209481    0.000000
siesta:     37    1.031475   -0.567794    0.000000
siesta:     38    0.183192    0.064492    0.000000
siesta:     39    0.557325    0.754592    0.000000
siesta:     40    0.186876    0.063548    0.000000
siesta:     41    0.553421    0.752875    0.000000
siesta:     42    0.184398    0.064475    0.000000
siesta:     43   -0.372767   -0.854311    0.000000
siesta:     44    0.010072   -0.215112    0.000000
siesta:     45    1.035903   -0.588470    0.000000
siesta:     46   -0.342137   -0.861651    0.000000
siesta:     47   -0.027495   -0.204574    0.000000
siesta:     48    1.030795   -0.589488    0.000000
siesta:     49   -0.369951   -0.854736    0.000000
siesta:     50    0.555340    0.760961    0.000000
siesta:     51    0.180667    0.082085    0.000000
siesta:     52    0.593729    0.748443    0.000000
siesta:     53    0.153544    0.089739    0.000000
siesta:     54   -0.372191   -0.853696    0.000000
siesta:     55    0.013136   -0.216558    0.000000
siesta:     56    1.061184   -0.591853    0.000000
siesta:     57   -0.375880   -0.855941    0.000000
siesta:     58    0.556789    0.761132    0.000000
siesta:     59    0.185004    0.082956    0.000000
siesta:     60   -0.333950   -0.846053    0.000000
siesta:     61   -0.026463   -0.201544    0.000000
siesta:     62    1.025950   -0.572800    0.000000
siesta:     63    0.557476    0.759880    0.000000
siesta:     64    0.010347   -0.214221    0.000000
siesta:     65    1.035686   -0.588337    0.000000
siesta:     66    0.552997    0.761930    0.000000
siesta:     67   -0.371354   -0.854247    0.000000
siesta:     68    0.181501    0.082862    0.000000
siesta:     69   -0.375206   -0.837834    0.000000
siesta:     70    0.556390    0.759633    0.000000
siesta:     71   -0.029507   -0.200699    0.000000
siesta:     72    1.013645   -0.569441    0.000000
siesta: ----------------------------------------
siesta:    Tot    0.413764   -0.083947    0.000000

siesta: Stress tensor (static) (eV/Ang**3):
siesta:     0.038044   -0.001299    0.000000
siesta:    -0.001299    0.036798    0.000000
siesta:     0.000000    0.000000    0.000221

siesta: Cell volume =       1893.226895 Ang**3

siesta: Pressure (static):
siesta:                Solid            Molecule  Units
siesta:          -0.00027251         -0.00028820  Ry/Bohr**3
siesta:          -0.02502105         -0.02646123  eV/Ang**3
siesta:         -40.08857667        -42.39601593  kBar
(Free)E+ p_basis*V_orbitals  =      -14805.269362
(Free)Eharris+ p_basis*V_orbitals  =      -14805.288687

siesta: Electric dipole (a.u.)  =    0.000000    0.000000    0.000000
siesta: Electric dipole (Debye) =    0.000000    0.000000    0.000000

* Maximum dynamic memory allocated : Node    0 =   190 MB
* Maximum dynamic memory allocated : Node    1 =    70 MB
* Maximum dynamic memory allocated : Node    2 =    72 MB
* Maximum dynamic memory allocated : Node    3 =   180 MB
* Maximum dynamic memory allocated : Node    4 =   188 MB
* Maximum dynamic memory allocated : Node    5 =    70 MB
* Maximum dynamic memory allocated : Node    6 =    72 MB
* Maximum dynamic memory allocated : Node    7 =   174 MB

* Maximum memory occured during matrixMtoO                    

timer: CPU execution times:
timer:  Routine       Calls   Time/call    Tot.time        %
timer:  siesta            1  111272.479  111272.479   100.00
timer:  Setup             1       3.102       3.102     0.00
timer:  bands             1       0.009       0.009     0.00
timer:  writewave         1       0.018       0.018     0.00
timer:  KSV_init          1       0.003       0.003     0.00
timer:  IterMD            1  111261.227  111261.227    99.99
timer:  hsparse           1       0.262       0.262     0.00
timer:  overlap           1       7.660       7.660     0.01
timer:  IterSCF          15    7407.619  111114.286    99.86
timer:  kinefsm           2       3.923       7.846     0.01
timer:  nlefsm            2      17.761      35.523     0.03
timer:  DHSCF            16      80.124    1281.979     1.15
timer:  DHSCF1            1       0.811       0.811     0.00
timer:  DHSCF2            1      32.880      32.880     0.03
timer:  REORD           130       0.014       1.803     0.00
timer:  POISON           17       3.681      62.578     0.06
timer:  DHSCF3           16      76.232    1219.712     1.10
timer:  rhoofd           16      13.954     223.268     0.20
timer:  cellXC           16       3.606      57.703     0.05
timer:  vmat             16      37.373     597.973     0.54
timer:  MolMec            2       0.000       0.000     0.00
timer:  diagon           15    7325.614  109884.204    98.75
timer:  c-eigval       5280       7.216   38101.419    34.24
timer:  c-buildHS      5280       0.198    1045.337     0.94
timer:  cdiag         10560       7.410   78254.828    70.33
timer:  cdiag1        10560       0.466    4917.724     4.42
timer:  cdiag2        10560       1.976   20866.448    18.75
timer:  cdiag3        10560       4.177   44109.385    39.64
timer:  cdiag4        10560       0.248    2620.761     2.36
timer:  c-eigvec       5280       7.889   41654.960    37.44
timer:  c-buildD       5280       5.695   30067.613    27.02
timer:  DHSCF4            1      27.154      27.154     0.02
timer:  dfscf             1      25.396      25.396     0.02
timer:  overfsm           1       0.369       0.369     0.00
timer:  optical           1       7.131       7.131     0.01
  

elaps: ELAPSED times:
elaps:  Routine       Calls   Time/call    Tot.time        %
elaps:  siesta            1   13928.617   13928.617   100.00
elaps:  Setup             1       0.387       0.387     0.00
elaps:  bands             1       0.001       0.001     0.00
elaps:  writewave         1       0.002       0.002     0.00
elaps:  KSV_init          1       0.000       0.000     0.00
elaps:  IterMD            1   13927.210   13927.210    99.99
elaps:  hsparse           1       0.032       0.032     0.00
elaps:  overlap           1       0.959       0.959     0.01
elaps:  IterSCF          15     927.255   13908.824    99.86
elaps:  kinefsm           2       0.491       0.982     0.01
elaps:  nlefsm            2       2.245       4.491     0.03
elaps:  DHSCF            16      10.206     163.298     1.17
elaps:  DHSCF1            1       0.107       0.107     0.00
elaps:  DHSCF2            1       4.116       4.116     0.03
elaps:  REORD           130       0.002       0.225     0.00
elaps:  POISON           17       0.464       7.881     0.06
elaps:  DHSCF3           16       9.538     152.610     1.10
elaps:  rhoofd           16       3.071      49.142     0.35
elaps:  cellXC           16       0.450       7.196     0.05
elaps:  vmat             16       4.676      74.814     0.54
elaps:  MolMec            2       0.000       0.000     0.00
elaps:  diagon           15     917.027   13755.409    98.76
elaps:  c-eigval       5280       0.903    4767.772    34.23
elaps:  c-buildHS      5280       0.026     138.453     0.99
elaps:  cdiag         10560       0.910    9604.338    68.95
elaps:  cdiag1        10560       0.057     603.742     4.33
elaps:  cdiag2        10560       0.247    2610.969    18.75
elaps:  cdiag3        10560       0.523    5527.346    39.68
elaps:  cdiag4        10560       0.032     339.979     2.44
elaps:  c-eigvec       5280       0.956    5048.667    36.25
elaps:  c-buildD       5280       0.744    3930.128    28.22
elaps:  DHSCF4            1       6.269       6.269     0.05
elaps:  dfscf             1       5.903       5.903     0.04
elaps:  overfsm           1       0.047       0.047     0.00
elaps:  optical           1       0.000       0.000     0.00
  
>> End of run:   5-DEC-2015  10:00:04
