Siesta Version:                                        siesta-3.2-pl-3
Architecture  : x86_64-unknown-linux-gnu--unknown
Compiler flags: mpiifort -g -O2 -fPIC -xSSE4.1 -fp-model source -shared-intel 
PARALLEL version

* Running on    8 nodes in parallel
>> Start of run:  30-NOV-2015  15:00:16

                           ***********************       
                           *  WELCOME TO SIESTA  *       
                           ***********************       

reinit: Reading from standard input
************************** Dump of input data file ****************************
#(1) General system descriptors
SystemName            GRP_doping    # Descriptive name of the system
SystemLabel           GRP_doping    # Short name for naming files
%include STRUCT.fdf
%include KPT.fdf
%include BASIS.fdf
#%include TS.fdf # for transiesta calculation
#(4) DFT, Grid, SCF
XC.functional         GGA           # LDA or GGA (default = LDA)
XC.authors            PBE           # CA (Ceperley-Aldr) = PZ
                                    #    (Perdew-Zunger) - LDA - Default
                                    # PW92 (Perdew-Wang-92) - LDA
                                    # PBE (Perdew-Burke-Ernzerhof) - GGA
MeshCutoff            200.000000    Ry      # Default: 50.0 Ry ~ 0.444 Bohr
                                    #         100.0 Ry ~ 0.314 Bohr
MaxSCFIterations      500           # Default: 50
DM.MixingWeight       0.05          # Default: 0.25
DM.NumberPulay        10            # Default: 0
DM.PulayOnFile        F             # SystemLabel.P1, SystemLabel.P2
DM.Tolerance          1.d-4         # Default: 1.d-4
DM.UseSaveDM          .true.        # because of the bug
SCFMustConverge       .true.
NeglNonOverlapInt     F             # Default: F
#(5) Eigenvalue problem: order-N or diagonalization
SolutionMethod        Diagon        # or Transiesta
ElectronicTemperature 300.0 K       # Default: 300.0 K
#(6) Molecular dynamics and relaxations
#MD.TypeOfRun          CG            # Type of dynamics:
#MD.VariableCell       F
#MD.NumCGsteps         0           # 0 for single-point / 100 for gopt
#MD.MaxCGDispl         0.2 Bohr      # Default: 0.2 Bohr
#MD.MaxForceTol        0.02 eV/Ang   # Default: 0.04 eV/Ang
#MD.MaxStressTol       1.0 GPa       # Default: 1.0 GPa
# Geometry Constraints
#%block GeometryConstraints
#	position from 1 to 44
#%endblock GeometryConstraints
************************** End of input data file *****************************

reinit: -----------------------------------------------------------------------
reinit: System Name: GRP_doping
reinit: -----------------------------------------------------------------------
reinit: System Label: GRP_doping                                                  
reinit: -----------------------------------------------------------------------

initatom: Reading input for the pseudopotentials and atomic orbitals ----------
 Species number:            1  Label: C Atomic number:           6
 Species number:            2  Label: B Atomic number:           5
Ground state valence configuration:   2s02  2p02
Reading pseudopotential information in formatted form from C.psf

Valence configuration for pseudopotential generation:
2s( 2.00) rc: 1.54
2p( 2.00) rc: 1.54
3d( 0.00) rc: 1.54
4f( 0.00) rc: 1.54
Ground state valence configuration:   2s02  2p01
Reading pseudopotential information in formatted form from B.psf

Valence configuration for pseudopotential generation:
2s( 2.00) rc: 1.74
2p( 1.00) rc: 1.74
3d( 0.00) rc: 1.74
4f( 0.00) rc: 1.74
For C, standard SIESTA heuristics set lmxkb to 3
 (one more than the basis l, including polarization orbitals).
Use PS.lmax or PS.KBprojectors blocks to override.
For B, standard SIESTA heuristics set lmxkb to 3
 (one more than the basis l, including polarization orbitals).
Use PS.lmax or PS.KBprojectors blocks to override.

<basis_specs>
===============================================================================
C                    Z=   6    Mass=  12.010        Charge= 0.17977+309
Lmxo=1 Lmxkb= 3    BasisType=split      Semic=F
L=0  Nsemic=0  Cnfigmx=2
          n=1  nzeta=2  polorb=0
            splnorm:   0.15000    
               vcte:    0.0000    
               rinn:    0.0000    
                rcs:    0.0000      0.0000    
            lambdas:    1.0000      1.0000    
L=1  Nsemic=0  Cnfigmx=2
          n=1  nzeta=2  polorb=1
            splnorm:   0.15000    
               vcte:    0.0000    
               rinn:    0.0000    
                rcs:    0.0000      0.0000    
            lambdas:    1.0000      1.0000    
-------------------------------------------------------------------------------
L=0  Nkbl=1  erefs: 0.17977+309
L=1  Nkbl=1  erefs: 0.17977+309
L=2  Nkbl=1  erefs: 0.17977+309
L=3  Nkbl=1  erefs: 0.17977+309
===============================================================================
</basis_specs>

atom: Called for C                     (Z =   6)

read_vps: Pseudopotential generation method:
read_vps: ATM3      Troullier-Martins                       
Total valence charge:    4.00000

read_vps: Pseudopotential includes a core correction:
read_vps: Pseudo-core for xc-correction

xc_check: Exchange-correlation functional:
xc_check: GGA Perdew, Burke & Ernzerhof 1996
V l=0 = -2*Zval/r beyond r=  1.5227
V l=1 = -2*Zval/r beyond r=  1.5227
V l=2 = -2*Zval/r beyond r=  1.5227
V l=3 = -2*Zval/r beyond r=  1.5038
All V_l potentials equal beyond r=  1.5227
This should be close to max(r_c) in ps generation
All pots = -2*Zval/r beyond r=  1.5227

VLOCAL1: 99.0% of the norm of Vloc inside     18.722 Ry
VLOCAL1: 99.9% of the norm of Vloc inside     42.668 Ry
atom: Maximum radius for 4*pi*r*r*local-pseudopot. charge    1.83678
atom: Maximum radius for r*vlocal+2*Zval:    1.58088
GHOST: No ghost state for L =  0
GHOST: No ghost state for L =  1
GHOST: No ghost state for L =  2
GHOST: No ghost state for L =  3

KBgen: Kleinman-Bylander projectors: 
   l= 0   rc=  1.704034   el= -1.009801   Ekb=  5.335044   kbcos=  0.316824
   l= 1   rc=  1.704034   el= -0.388707   Ekb= -3.785862   kbcos= -0.366464
   l= 2   rc=  1.791422   el=  0.001971   Ekb= -0.970471   kbcos= -0.009212
   l= 3   rc=  1.859892   el=  0.003065   Ekb= -0.399525   kbcos= -0.001223

KBgen: Total number of  Kleinman-Bylander projectors:   16
atom: -------------------------------------------------------------------------

atom: SANKEY-TYPE ORBITALS:
atom: Selected multiple-zeta basis: split     

SPLIT: Orbitals with angular momentum L= 0

SPLIT: Basis orbitals for state 2s

SPLIT: PAO cut-off radius determined from an
SPLIT: energy shift=  0.007350 Ry

   izeta = 1
                 lambda =    1.000000
                     rc =    4.632753
                 energy =   -1.002270
                kinetic =    0.855760
    potential(screened) =   -1.858031
       potential(ionic) =   -5.417575

   izeta = 2
                 rmatch =    3.431921
              splitnorm =    0.150000
                 energy =   -0.867111
                kinetic =    1.300804
    potential(screened) =   -2.167915
       potential(ionic) =   -5.962684

SPLIT: Orbitals with angular momentum L= 1

SPLIT: Basis orbitals for state 2p

SPLIT: PAO cut-off radius determined from an
SPLIT: energy shift=  0.007350 Ry

   izeta = 1
                 lambda =    1.000000
                     rc =    5.658549
                 energy =   -0.381140
                kinetic =    2.399701
    potential(screened) =   -2.780841
       potential(ionic) =   -6.206085

   izeta = 2
                 rmatch =    3.653288
              splitnorm =    0.150000
                 energy =   -0.249149
                kinetic =    3.542762
    potential(screened) =   -3.791911
       potential(ionic) =   -7.581078

POLgen: Perturbative polarization orbital with L=  2

POLgen: Polarization orbital for state 2p

   izeta = 1
                     rc =    5.658549
                 energy =    1.109913
                kinetic =    2.304789
    potential(screened) =   -1.194876
       potential(ionic) =   -4.013592
atom: Total number of Sankey-type orbitals: 13

atm_pop: Valence configuration (for local Pseudopot. screening):
 2s( 2.00)                                                            
 2p( 2.00)                                                            
Vna: chval, zval:    4.00000   4.00000

Vna:  Cut-off radius for the neutral-atom potential:   5.658549
comcore: Pseudo-core radius Rcore=  1.791422

atom: _________________________________________________________________________

<basis_specs>
===============================================================================
B                    Z=   5    Mass=  10.810        Charge= 0.17977+309
Lmxo=1 Lmxkb= 3    BasisType=split      Semic=F
L=0  Nsemic=0  Cnfigmx=2
          n=1  nzeta=2  polorb=0
            splnorm:   0.15000    
               vcte:    0.0000    
               rinn:    0.0000    
                rcs:    0.0000      0.0000    
            lambdas:    1.0000      1.0000    
L=1  Nsemic=0  Cnfigmx=2
          n=1  nzeta=2  polorb=1
            splnorm:   0.15000    
               vcte:    0.0000    
               rinn:    0.0000    
                rcs:    0.0000      0.0000    
            lambdas:    1.0000      1.0000    
-------------------------------------------------------------------------------
L=0  Nkbl=1  erefs: 0.17977+309
L=1  Nkbl=1  erefs: 0.17977+309
L=2  Nkbl=1  erefs: 0.17977+309
L=3  Nkbl=1  erefs: 0.17977+309
===============================================================================
</basis_specs>

atom: Called for B                     (Z =   5)

read_vps: Pseudopotential generation method:
read_vps: ATM3      Troullier-Martins                       
Total valence charge:    3.00000

read_vps: Pseudopotential includes a core correction:
read_vps: Pseudo-core for xc-correction

xc_check: Exchange-correlation functional:
xc_check: GGA Perdew, Burke & Ernzerhof 1996
V l=0 = -2*Zval/r beyond r=  1.7165
V l=1 = -2*Zval/r beyond r=  1.7165
V l=2 = -2*Zval/r beyond r=  1.7165
V l=3 = -2*Zval/r beyond r=  1.6951
All V_l potentials equal beyond r=  1.7165
This should be close to max(r_c) in ps generation
All pots = -2*Zval/r beyond r=  1.7165

VLOCAL1: 99.0% of the norm of Vloc inside     14.733 Ry
VLOCAL1: 99.9% of the norm of Vloc inside     33.577 Ry
atom: Maximum radius for 4*pi*r*r*local-pseudopot. charge    2.04484
atom: Maximum radius for r*vlocal+2*Zval:    1.75994
GHOST: No ghost state for L =  0
GHOST: No ghost state for L =  1
GHOST: No ghost state for L =  2
GHOST: No ghost state for L =  3

KBgen: Kleinman-Bylander projectors: 
   l= 0   rc=  1.897051   el= -0.693730   Ekb=  4.595746   kbcos=  0.286105
   l= 1   rc=  1.920920   el= -0.265236   Ekb= -2.350715   kbcos= -0.315747
   l= 2   rc=  2.044840   el=  0.002055   Ekb= -0.690767   kbcos= -0.013822
   l= 3   rc=  2.149707   el=  0.003188   Ekb= -0.315358   kbcos= -0.002055

KBgen: Total number of  Kleinman-Bylander projectors:   16
atom: -------------------------------------------------------------------------

atom: SANKEY-TYPE ORBITALS:
atom: Selected multiple-zeta basis: split     

SPLIT: Orbitals with angular momentum L= 0

SPLIT: Basis orbitals for state 2s

SPLIT: PAO cut-off radius determined from an
SPLIT: energy shift=  0.007350 Ry

   izeta = 1
                 lambda =    1.000000
                     rc =    5.422032
                 energy =   -0.686029
                kinetic =    0.576707
    potential(screened) =   -1.262736
       potential(ionic) =   -3.271094

   izeta = 2
                 rmatch =    4.222573
              splitnorm =    0.150000
                 energy =   -0.602132
                kinetic =    0.858975
    potential(screened) =   -1.461107
       potential(ionic) =   -3.582536

SPLIT: Orbitals with angular momentum L= 1

SPLIT: Basis orbitals for state 2p

SPLIT: PAO cut-off radius determined from an
SPLIT: energy shift=  0.007350 Ry

   izeta = 1
                 lambda =    1.000000
                     rc =    6.790259
                 energy =   -0.258578
                kinetic =    1.481412
    potential(screened) =   -1.739989
       potential(ionic) =   -3.657461

   izeta = 2
                 rmatch =    4.608740
              splitnorm =    0.150000
                 energy =   -0.173757
                kinetic =    2.186690
    potential(screened) =   -2.360447
       potential(ionic) =   -4.464260

POLgen: Perturbative polarization orbital with L=  2

POLgen: Polarization orbital for state 2p

   izeta = 1
                     rc =    6.790259
                 energy =    0.684082
                kinetic =    1.471481
    potential(screened) =   -0.787399
       potential(ionic) =   -2.406985
atom: Total number of Sankey-type orbitals: 13

atm_pop: Valence configuration (for local Pseudopot. screening):
 2s( 2.00)                                                            
 2p( 1.00)                                                            
Vna: chval, zval:    3.00000   3.00000

Vna:  Cut-off radius for the neutral-atom potential:   6.790259
comcore: Pseudo-core radius Rcore=  2.122997

atom: _________________________________________________________________________

prinput: Basis input ----------------------------------------------------------

PAO.BasisType split     

%block ChemicalSpeciesLabel
    1    6 C                       # Species index, atomic number, species label
    2    5 B                       # Species index, atomic number, species label
%endblock ChemicalSpeciesLabel

%block PAO.Basis                 # Define Basis set
C                     2                    # Species label, number of l-shells
 n=2   0   2                         # n, l, Nzeta 
   4.633      3.432   
   1.000      1.000   
 n=2   1   2 P   1                   # n, l, Nzeta, Polarization, NzetaPol
   5.659      3.653   
   1.000      1.000   
B                     2                    # Species label, number of l-shells
 n=2   0   2                         # n, l, Nzeta 
   5.422      4.223   
   1.000      1.000   
 n=2   1   2 P   1                   # n, l, Nzeta, Polarization, NzetaPol
   6.790      4.609   
   1.000      1.000   
%endblock PAO.Basis

prinput: ----------------------------------------------------------------------

coor:   Atomic-coordinates input format  =     Cartesian coordinates
coor:                                          (in Angstroms)

siesta: Atomic coordinates (Bohr) and species
siesta:      2.23554   1.32097   0.00000  1        1
siesta:      4.56367   2.66461   0.00000  1        2
siesta:     32.50328  21.48508   0.00000  1        3
siesta:     34.83141  22.82873   0.00000  1        4
siesta:     34.83116  17.45226   0.00000  1        5
siesta:     37.15930  18.79590   0.00000  1        6
siesta:     32.50291  13.41944   0.00000  1        7
siesta:     34.83104  14.76308   0.00000  1        8
siesta:     30.17465   9.38661   0.00000  1        9
siesta:     32.50278  10.73026   0.00000  1       10
siesta:     27.84639   5.35379   0.00000  1       11
siesta:     30.17453   6.69743   0.00000  1       12
siesta:     27.84714  21.48508   0.00000  1       13
siesta:     30.17527  22.82873   0.00000  1       14
siesta:      6.89168   1.32097   0.00000  1       15
siesta:      9.21981   2.66461   0.00000  1       16
siesta:     11.54782   1.32097   0.00000  1       17
siesta:     13.87595   2.66461   0.00000  1       18
siesta:     16.20396   1.32097   0.00000  1       19
siesta:     18.53210   2.66461   0.00000  1       20
siesta:     23.19013   2.66461   0.00000  1       21
siesta:     25.51813   1.32097   0.00000  1       22
siesta:     27.84627   2.66461   0.00000  1       23
siesta:      6.89193   6.69743   0.00000  1       24
siesta:      9.21994   5.35379   0.00000  1       25
siesta:     11.54807   6.69743   0.00000  1       26
siesta:     13.87608   5.35379   0.00000  1       27
siesta:     16.20421   6.69743   0.00000  1       28
siesta:     20.86224   6.69743   0.00000  1       29
siesta:     23.19025   5.35379   0.00000  1       30
siesta:     25.51838   6.69743   0.00000  1       31
siesta:      9.22019  10.73026   0.00000  1       32
siesta:     11.54820   9.38661   0.00000  1       33
siesta:     13.87633  10.73026   0.00000  1       34
siesta:     18.53247  10.73026   0.00000  1       35
siesta:     20.86237   9.38661   0.00000  1       36
siesta:     23.19050  10.73026   0.00000  1       37
siesta:      9.22031  13.41944   0.00000  1       38
siesta:     11.54845  14.76308   0.00000  1       39
siesta:     13.87645  13.41944   0.00000  1       40
siesta:     16.20459  14.76308   0.00000  1       41
siesta:     18.53448  13.41944   0.00000  1       42
siesta:     20.86262  14.76308   0.00000  1       43
siesta:     13.87670  18.79590   0.00000  1       44
siesta:     16.20471  17.45226   0.00000  1       45
siesta:     18.53284  18.79590   0.00000  1       46
siesta:     13.87683  21.48508   0.00000  1       47
siesta:     16.20496  22.82873   0.00000  1       48
siesta:     18.53486  21.48508   0.00000  1       49
siesta:     20.86299  22.82873   0.00000  1       50
siesta:     27.84664  10.73026   0.00000  1       51
siesta:     23.19063  13.41944   0.00000  1       52
siesta:     25.51876  14.76308   0.00000  1       53
siesta:     23.19088  18.79590   0.00000  1       54
siesta:     27.84677  13.41944   0.00000  1       55
siesta:     30.17490  14.76308   0.00000  1       56
siesta:     25.51888  17.45226   0.00000  1       57
siesta:     27.84702  18.79590   0.00000  1       58
siesta:     23.19100  21.48508   0.00000  1       59
siesta:     25.51913  22.82873   0.00000  1       60
siesta:     32.50316  18.79590   0.00000  1       61
siesta:     37.16131  21.48508   0.00000  1       62
siesta:     39.48945  22.82873   0.00000  1       63
siesta:     20.86199   1.32097   0.00000  2       64
siesta:      4.56380   5.35379   0.00000  2       65
siesta:     18.53411   5.35379   0.00000  2       66
siesta:      6.89205   9.38661   0.00000  2       67
siesta:     16.20434   9.38661   0.00000  2       68
siesta:     11.54857  17.45226   0.00000  2       69
siesta:     25.51851   9.38661   0.00000  2       70
siesta:     20.86274  17.45226   0.00000  2       71
siesta:     30.17503  17.45226   0.00000  2       72

siesta: System type = slab      

initatomlists: Number of atoms, orbitals, and projectors:     72   936  1152

siesta: ******************** Simulation parameters ****************************
siesta:
siesta: The following are some of the parameters of the simulation.
siesta: A complete list of the parameters used, including default values,
siesta: can be found in file out.fdf
siesta:
redata: Non-Collinear-spin run           =     F
redata: SpinPolarized (Up/Down) run      =     F
redata: Number of spin components        =     1
redata: Long output                      =     F
redata: Number of Atomic Species         =        2
redata: Charge density info will appear in .RHO file
redata: Write Mulliken Pop.              =     NO
redata: Mesh Cutoff                      =   200.0000  Ry
redata: Net charge of the system         =     0.0000 |e|
redata: Max. number of SCF Iter          =      500
redata: SCF convergence failure will abort job
redata: Performing Pulay mixing using    =    10 iterations
redata: Mix DM in first SCF step ?       =     F
redata: Write Pulay info on disk?        =     F
redata: Discard 1st Pulay DM after  kick =     F
redata: New DM Mixing Weight             =     0.0500
redata: New DM Occupancy tolerance       = 0.000000000001
redata: No kicks to SCF
redata: DM Mixing Weight for Kicks       =     0.5000
redata: DM Tolerance for SCF             =     0.000100
redata: Require Energy convergence for SCF =     F
redata: DM Energy tolerance for SCF      =     0.000100 eV
redata: Require Harris convergence for SCF =     F
redata: DM Harris energy tolerance for SCF =     0.000100 eV
redata: Using Saved Data (generic)   =     F
redata: Use continuation files for DM    =     T
redata: Neglect nonoverlap interactions  =     F
redata: Method of Calculation            =     Diagonalization
redata: Divide and Conquer               =     T
redata: Electronic Temperature           =     0.0019  Ry
redata: Fix the spin of the system       =     F
redata: Dynamics option                  =     Verlet MD run
redata: Initial MD time step             =        1
redata:   Final MD time step             =        1
redata: Length of MD time step           =     1.0000  fs
redata: Initial Temperature of MD run    =     0.0000  K
redata: Perform a MD quench              =     F
redata: ***********************************************************************
Total number of electrons:   279.000000
Total ionic charge:   279.000000

* ProcessorY, Blocksize:    2  24

k-point displ. along   1 input, could be:     0.00    0.50
k-point displ. along   2 input, could be:     0.00    0.50
 Kpoints in:          364 . Kpoints trimmed:          352

siesta: k-grid: Number of k-points =   352
siesta: k-grid: Cutoff (effective) =     5.000 Ang
siesta: k-grid: Supercell and displacements
siesta: k-grid:   26   0   0      0.000
siesta: k-grid:    0  26   0      0.000
siesta: k-grid:    0   0   1      0.000
Naive supercell factors:     2    2    2

superc: Internal auxiliary supercell:     2 x     2 x     2  =       8
superc: Number of atoms, orbitals, and projectors:    576   7488   9216

* Maximum dynamic memory allocated =     6 MB

siesta:                 ==============================
                            Begin MD step =      1
                        ==============================

superc: Internal auxiliary supercell:     2 x     2 x     2  =       8
superc: Number of atoms, orbitals, and projectors:    576   7488   9216

outcell: Unit cell vectors (Ang):
       14.785000    0.000000    0.000000
        7.393000   12.805052    0.000000
        0.000000    0.000000   10.000000

outcell: Cell vector modules (Ang)   :   14.785000   14.786000   10.000000
outcell: Cell angles (23,13,12) (deg):     90.0000     90.0000     60.0000
outcell: Cell volume (Ang**3)        :   1893.2269
New_DM. Step:     1
Initializing Density Matrix...

InitMesh: MESH =   120 x   120 x    90 =     1296000
InitMesh: Mesh cutoff (required, used) =   200.000   223.865 Ry

* Maximum dynamic memory allocated =   207 MB

stepf: Fermi-Dirac step function

siesta: Program's energy decomposition (eV):
siesta: Ebs     =     -4462.601857
siesta: Eions   =     17250.500670
siesta: Ena     =      3769.684326
siesta: Ekin    =      5903.534022
siesta: Enl     =       294.207606
siesta: DEna    =        -0.000010
siesta: DUscf   =         0.000000
siesta: DUext   =         0.000000
siesta: Exc     =     -3961.768038
siesta: eta*DQ  =         0.000000
siesta: Emadel  =         0.000000
siesta: Emeta   =         0.000000
siesta: Emolmec =         0.000000
siesta: Ekinion =         0.000000
siesta: Eharris =    -11173.602968
siesta: Etot    =    -11244.842765
siesta: FreeEng =    -11244.842765

siesta: iscf   Eharris(eV)      E_KS(eV)   FreeEng(eV)   dDmax  Ef(eV)
siesta:    1   -11173.6030   -11244.8428   -11244.8428  1.9127 -8.1227
timer: Routine,Calls,Time,% = IterSCF        1    8117.701  99.87
elaps: Routine,Calls,Wall,% = IterSCF        1    1016.652  99.90
siesta:    2   -11215.0777   -11122.2582   -11122.2904  0.8171 -3.4258
siesta:    3   -11155.8832   -11161.9035   -11161.9390  0.5067 -5.1637
siesta:    4   -11151.9343   -11159.6437   -11159.6643  0.4608 -5.4175
siesta:    5   -11148.1326   -11152.0818   -11152.1274  0.3256 -5.4838
siesta:    6   -11146.1888   -11147.5288   -11147.5591  0.2017 -5.7363
siesta:    7   -11147.7729   -11144.5676   -11144.6008  0.1204 -5.8394
siesta:    8   -11146.3221   -11142.4168   -11142.4469  0.0558 -5.8957
siesta:    9   -11145.7856   -11142.0047   -11142.0376  0.0348 -5.8817
siesta:   10   -11145.1089   -11142.2887   -11142.3197  0.0191 -5.9389
siesta:   11   -11144.8839   -11142.5868   -11142.6235  0.0127 -5.9443
siesta:   12   -11144.8370   -11142.9563   -11142.9940  0.0104 -5.9467
siesta:   13   -11144.8268   -11143.2651   -11143.3012  0.0078 -5.9516
siesta:   14   -11144.8201   -11143.6763   -11143.7126  0.0053 -5.9458
siesta:   15   -11144.8191   -11143.8745   -11143.9114  0.0046 -5.9390
siesta:   16   -11144.8189   -11144.1031   -11144.1406  0.0026 -5.9366
siesta:   17   -11144.8190   -11144.6035   -11144.6407  0.0012 -5.9356
siesta:   18   -11144.8186   -11144.7704   -11144.8073  0.0011 -5.9343
siesta:   19   -11144.8183   -11144.7711   -11144.8081  0.0009 -5.9346
siesta:   20   -11144.8182   -11144.8027   -11144.8398  0.0005 -5.9344
siesta:   21   -11144.8182   -11144.8022   -11144.8392  0.0003 -5.9346
siesta:   22   -11144.8182   -11144.8118   -11144.8488  0.0002 -5.9347
siesta:   23   -11144.8182   -11144.8115   -11144.8485  0.0002 -5.9347
siesta:   24   -11144.8182   -11144.8097   -11144.8467  0.0001 -5.9347
siesta:   25   -11144.8182   -11144.8139   -11144.8510  0.0001 -5.9351

siesta: E_KS(eV) =           -11144.8162

siesta: E_KS - E_eggbox =    -11144.8162

siesta: Atomic forces (eV/Ang):
----------------------------------------
   Tot    0.193222   -0.130676    0.000000
----------------------------------------
   Max    3.680447
   Res    1.185494    sqrt( Sum f_i^2 / 3N )
----------------------------------------
   Max    3.680447    constrained

Stress-tensor-Voigt (kbar):     -118.90     -118.77       -0.25       -0.58        0.00        0.00
(Free)E + p*V (eV/cell)   -11051.1424
Target enthalpy (eV/cell)   -11144.8532

siesta: Stress tensor (static) (eV/Ang**3):
        -0.074208   -0.000364    0.000000
        -0.000364   -0.074128    0.000000
         0.000000    0.000000   -0.000158

siesta: Pressure (static):         79.30525081  kBar

siesta: Stress tensor (total) (eV/Ang**3):
        -0.074208   -0.000364    0.000000
        -0.000364   -0.074128    0.000000
         0.000000    0.000000   -0.000158

siesta: Pressure (total):         79.30525081  kBar

siesta: Temp_ion =       0.000 K

* Maximum dynamic memory allocated =   222 MB

siesta: Program's energy decomposition (eV):
siesta: Ebs     =     -3691.086145
siesta: Eions   =     17250.500670
siesta: Ena     =      3769.684326
siesta: Ekin    =      7407.969030
siesta: Enl     =      -692.276845
siesta: DEna    =      -342.399634
siesta: DUscf   =        36.533351
siesta: DUext   =         0.000000
siesta: Exc     =     -4073.825730
siesta: eta*DQ  =         0.000000
siesta: Emadel  =         0.000000
siesta: Emeta   =         0.000000
siesta: Emolmec =         0.000000
siesta: Ekinion =         0.000000
siesta: Eharris =    -11144.818225
siesta: Etot    =    -11144.816171
siesta: FreeEng =    -11144.853220

siesta: Final energy (eV):
siesta:  Band Struct. =   -3691.086145
siesta:       Kinetic =    7407.969030
siesta:       Hartree =   21696.466757
siesta:    Ext. field =       0.000000
siesta:   Exch.-corr. =   -4073.825730
siesta:  Ion-electron =  -50132.556541
siesta:       Ion-ion =   13957.130313
siesta:       Ekinion =       0.000000
siesta:         Total =  -11144.816171

siesta: Atomic forces (eV/Ang):
siesta:      1    0.611224   -0.417680    0.000000
siesta:      2   -0.287606   -3.680447    0.000000
siesta:      3    1.148787   -0.781502    0.000000
siesta:      4    0.203269   -3.248648    0.000000
siesta:      5    0.085430    0.966551    0.000000
siesta:      6   -2.601673    1.659516    0.000000
siesta:      7   -1.004273   -0.700109    0.000000
siesta:      8    0.081555    0.128141    0.000000
siesta:      9   -0.734266    1.255411    0.000000
siesta:     10   -2.908745    1.886148    0.000000
siesta:     11   -0.210757    0.468431    0.000000
siesta:     12   -3.144008    1.183651    0.000000
siesta:     13   -0.381445   -0.322374    0.000000
siesta:     14   -0.522454    0.203624    0.000000
siesta:     15   -0.526509   -0.633787    0.000000
siesta:     16    0.541490   -0.208443    0.000000
siesta:     17   -0.103538    0.187016    0.000000
siesta:     18   -0.597060   -0.295949    0.000000
siesta:     19    0.469846    0.022545    0.000000
siesta:     20   -2.947475   -1.911290    0.000000
siesta:     21    3.066918    1.679738    0.000000
siesta:     22    0.191068    0.549755    0.000000
siesta:     23    0.151269   -0.309640    0.000000
siesta:     24    3.145798   -1.967949    0.000000
siesta:     25   -0.300065    0.470991    0.000000
siesta:     26    0.021597   -0.845008    0.000000
siesta:     27    0.266635    0.428171    0.000000
siesta:     28   -3.155899   -1.649007    0.000000
siesta:     29    3.087206    1.855216    0.000000
siesta:     30    1.110344    0.131997    0.000000
siesta:     31   -0.093880   -3.673249    0.000000
siesta:     32    2.952728    1.627233    0.000000
siesta:     33   -0.003777    1.532940    0.000000
siesta:     34   -2.900081    1.636344    0.000000
siesta:     35    2.837961    1.958542    0.000000
siesta:     36    0.666792    0.856228    0.000000
siesta:     37   -2.800351    1.712422    0.000000
siesta:     38    1.100840   -0.439645    0.000000
siesta:     39   -0.001542   -3.106590    0.000000
siesta:     40   -1.010499   -0.438159    0.000000
siesta:     41   -0.084236   -0.016175    0.000000
siesta:     42    0.872847   -0.731851    0.000000
siesta:     43    0.068129   -3.043383    0.000000
siesta:     44    2.866100    1.587450    0.000000
siesta:     45   -0.133604    1.008566    0.000000
siesta:     46   -2.770362    1.692721    0.000000
siesta:     47    0.288084   -0.264011    0.000000
siesta:     48   -0.023087    0.413565    0.000000
siesta:     49   -0.612690   -0.261299    0.000000
siesta:     50    0.141178    0.363115    0.000000
siesta:     51    2.842922    1.508368    0.000000
siesta:     52   -0.796945   -0.482386    0.000000
siesta:     53    0.080625   -0.091589    0.000000
siesta:     54    2.925040    1.671346    0.000000
siesta:     55    0.847871   -0.306637    0.000000
siesta:     56   -0.153282   -3.065767    0.000000
siesta:     57    0.099980    1.153810    0.000000
siesta:     58   -3.038762    1.623264    0.000000
siesta:     59    0.694283   -0.327667    0.000000
siesta:     60   -0.154903    0.190753    0.000000
siesta:     61    2.669053    1.764361    0.000000
siesta:     62   -1.160737   -0.816906    0.000000
siesta:     63    0.325651    0.031852    0.000000
siesta:     64   -0.572755   -0.370672    0.000000
siesta:     65    0.363322   -0.117463    0.000000
siesta:     66   -0.943463   -0.535497    0.000000
siesta:     67    0.503126   -0.319105    0.000000
siesta:     68   -0.585525   -0.362652    0.000000
siesta:     69   -0.037818    0.059513    0.000000
siesta:     70    0.165275    0.091623    0.000000
siesta:     71    0.004345    0.079485    0.000000
siesta:     72   -0.001295   -0.028547    0.000000
siesta: ----------------------------------------
siesta:    Tot    0.193222   -0.130676    0.000000

siesta: Stress tensor (static) (eV/Ang**3):
siesta:    -0.074208   -0.000364    0.000000
siesta:    -0.000364   -0.074128    0.000000
siesta:     0.000000    0.000000   -0.000158

siesta: Cell volume =       1893.226895 Ang**3

siesta: Pressure (static):
siesta:                Solid            Molecule  Units
siesta:           0.00053910          0.00063548  Ry/Bohr**3
siesta:           0.04949791          0.05834795  eV/Ang**3
siesta:          79.30525081         93.48473431  kBar
(Free)E+ p_basis*V_orbitals  =      -11111.272021
(Free)Eharris+ p_basis*V_orbitals  =      -11111.276299

siesta: Electric dipole (a.u.)  =    0.000000    0.000000    0.000000
siesta: Electric dipole (Debye) =    0.000000    0.000000    0.000000

* Maximum dynamic memory allocated : Node    0 =   222 MB
* Maximum dynamic memory allocated : Node    1 =    80 MB
* Maximum dynamic memory allocated : Node    2 =    84 MB
* Maximum dynamic memory allocated : Node    3 =   212 MB
* Maximum dynamic memory allocated : Node    4 =   222 MB
* Maximum dynamic memory allocated : Node    5 =    80 MB
* Maximum dynamic memory allocated : Node    6 =    83 MB
* Maximum dynamic memory allocated : Node    7 =   204 MB

* Maximum memory occured during matrixMtoO                    

timer: CPU execution times:
timer:  Routine       Calls   Time/call    Tot.time        %
timer:  siesta            1  201363.681  201363.681   100.00
timer:  Setup             1       3.104       3.104     0.00
timer:  bands             1       0.010       0.010     0.00
timer:  writewave         1       0.016       0.016     0.00
timer:  KSV_init          1       0.004       0.004     0.00
timer:  IterMD            1  201352.407  201352.407    99.99
timer:  hsparse           1       0.401       0.401     0.00
timer:  overlap           1       6.404       6.404     0.00
timer:  IterSCF          25    8046.279  201156.980    99.90
timer:  kinefsm           2       3.311       6.623     0.00
timer:  nlefsm            2      20.354      40.708     0.02
timer:  DHSCF            26     107.258    2788.698     1.38
timer:  DHSCF1            1       1.057       1.057     0.00
timer:  DHSCF2            1      43.734      43.734     0.02
timer:  REORD           210       0.014       2.930     0.00
timer:  POISON           27       3.696      99.798     0.05
timer:  DHSCF3           26     104.014    2704.361     1.34
timer:  rhoofd           26      20.027     520.705     0.26
timer:  cellXC           26       3.529      91.756     0.05
timer:  vmat             26      52.951    1376.717     0.68
timer:  MolMec            2       0.000       0.000     0.00
timer:  diagon           25    7937.515  198437.864    98.55
timer:  c-eigval       8800       7.218   63518.429    31.54
timer:  c-buildHS      8800       0.213    1877.766     0.93
timer:  cdiag         17600       7.429  130756.089    64.94
timer:  cdiag1        17600       0.464    8172.613     4.06
timer:  cdiag2        17600       1.976   34782.079    17.27
timer:  cdiag3        17600       4.163   73265.894    36.38
timer:  cdiag4        17600       0.274    4822.536     2.39
timer:  c-eigvec       8800       7.937   69847.372    34.69
timer:  c-buildD       8800       7.383   64969.633    32.26
timer:  DHSCF4            1      37.227      37.227     0.02
timer:  dfscf             1      34.645      34.645     0.02
timer:  overfsm           1       0.430       0.430     0.00
timer:  optical           1       7.143       7.143     0.00
  

elaps: ELAPSED times:
elaps:  Routine       Calls   Time/call    Tot.time        %
elaps:  siesta            1   25208.885   25208.885   100.00
elaps:  Setup             1       0.387       0.387     0.00
elaps:  bands             1       0.001       0.001     0.00
elaps:  writewave         1       0.002       0.002     0.00
elaps:  KSV_init          1       0.000       0.000     0.00
elaps:  IterMD            1   25207.475   25207.475    99.99
elaps:  hsparse           1       0.049       0.049     0.00
elaps:  overlap           1       0.529       0.529     0.00
elaps:  IterSCF          25    1007.335   25183.367    99.90
elaps:  kinefsm           2       0.280       0.560     0.00
elaps:  nlefsm            2       2.593       5.185     0.02
elaps:  DHSCF            26      13.561     352.578     1.40
elaps:  DHSCF1            1       0.135       0.135     0.00
elaps:  DHSCF2            1       5.468       5.468     0.02
elaps:  REORD           210       0.002       0.385     0.00
elaps:  POISON           27       0.464      12.534     0.05
elaps:  DHSCF3           26      13.014     338.367     1.34
elaps:  rhoofd           26       4.284     111.388     0.44
elaps:  cellXC           26       0.440      11.449     0.05
elaps:  vmat             26       6.625     172.248     0.68
elaps:  MolMec            2       0.000       0.000     0.00
elaps:  diagon           25     993.747   24843.687    98.55
elaps:  c-eigval       8800       0.903    7948.187    31.53
elaps:  c-buildHS      8800       0.028     246.944     0.98
elaps:  cdiag         17600       0.911   16035.979    63.61
elaps:  cdiag1        17600       0.057    1007.199     4.00
elaps:  cdiag2        17600       0.247    4351.962    17.26
elaps:  cdiag3        17600       0.522    9181.310    36.42
elaps:  cdiag4        17600       0.035     622.331     2.47
elaps:  c-eigvec       8800       0.959    8442.365    33.49
elaps:  c-buildD       8800       0.959    8439.054    33.48
elaps:  DHSCF4            1       8.286       8.286     0.03
elaps:  dfscf             1       7.798       7.798     0.03
elaps:  overfsm           1       0.053       0.053     0.00
elaps:  optical           1       0.000       0.000     0.00
  
>> End of run:  30-NOV-2015  22:00:25
