Siesta Version:                                        siesta-3.2-pl-3
Architecture  : x86_64-unknown-linux-gnu--unknown
Compiler flags: mpiifort -g -O2 -fPIC -xSSE4.1 -fp-model source -shared-intel 
PARALLEL version

* Running on    8 nodes in parallel
>> Start of run:   6-DEC-2015  11:18:45

                           ***********************       
                           *  WELCOME TO SIESTA  *       
                           ***********************       

reinit: Reading from standard input
************************** Dump of input data file ****************************
#(1) General system descriptors
SystemName            GRP_doping    # Descriptive name of the system
SystemLabel           GRP_doping    # Short name for naming files
%include STRUCT.fdf
%include KPT.fdf
%include BASIS.fdf
#%include TS.fdf # for transiesta calculation
#(4) DFT, Grid, SCF
XC.functional         GGA           # LDA or GGA (default = LDA)
XC.authors            PBE           # CA (Ceperley-Aldr) = PZ
                                    #    (Perdew-Zunger) - LDA - Default
                                    # PW92 (Perdew-Wang-92) - LDA
                                    # PBE (Perdew-Burke-Ernzerhof) - GGA
MeshCutoff            200.000000    Ry      # Default: 50.0 Ry ~ 0.444 Bohr
                                    #         100.0 Ry ~ 0.314 Bohr
MaxSCFIterations      500           # Default: 50
DM.MixingWeight       0.05          # Default: 0.25
DM.NumberPulay        10            # Default: 0
DM.PulayOnFile        F             # SystemLabel.P1, SystemLabel.P2
DM.Tolerance          1.d-4         # Default: 1.d-4
DM.UseSaveDM          .true.        # because of the bug
SCFMustConverge       .true.
NeglNonOverlapInt     F             # Default: F
#(5) Eigenvalue problem: order-N or diagonalization
SolutionMethod        Diagon        # or Transiesta
ElectronicTemperature 300.0 K       # Default: 300.0 K
#(6) Molecular dynamics and relaxations
#MD.TypeOfRun          CG            # Type of dynamics:
#MD.VariableCell       F
#MD.NumCGsteps         0           # 0 for single-point / 100 for gopt
#MD.MaxCGDispl         0.2 Bohr      # Default: 0.2 Bohr
#MD.MaxForceTol        0.02 eV/Ang   # Default: 0.04 eV/Ang
#MD.MaxStressTol       1.0 GPa       # Default: 1.0 GPa
# Geometry Constraints
#%block GeometryConstraints
#	position from 1 to 44
#%endblock GeometryConstraints
************************** End of input data file *****************************

reinit: -----------------------------------------------------------------------
reinit: System Name: GRP_doping
reinit: -----------------------------------------------------------------------
reinit: System Label: GRP_doping                                                  
reinit: -----------------------------------------------------------------------

initatom: Reading input for the pseudopotentials and atomic orbitals ----------
 Species number:            1  Label: N Atomic number:           7
 Species number:            2  Label: C Atomic number:           6
Ground state valence configuration:   2s02  2p03
Reading pseudopotential information in formatted form from N.psf

Valence configuration for pseudopotential generation:
2s( 2.00) rc: 1.48
2p( 3.00) rc: 1.48
3d( 0.00) rc: 1.48
4f( 0.00) rc: 1.48
Ground state valence configuration:   2s02  2p02
Reading pseudopotential information in formatted form from C.psf

Valence configuration for pseudopotential generation:
2s( 2.00) rc: 1.54
2p( 2.00) rc: 1.54
3d( 0.00) rc: 1.54
4f( 0.00) rc: 1.54
For N, standard SIESTA heuristics set lmxkb to 3
 (one more than the basis l, including polarization orbitals).
Use PS.lmax or PS.KBprojectors blocks to override.
For C, standard SIESTA heuristics set lmxkb to 3
 (one more than the basis l, including polarization orbitals).
Use PS.lmax or PS.KBprojectors blocks to override.

<basis_specs>
===============================================================================
N                    Z=   7    Mass=  14.010        Charge= 0.17977+309
Lmxo=1 Lmxkb= 3    BasisType=split      Semic=F
L=0  Nsemic=0  Cnfigmx=2
          n=1  nzeta=2  polorb=0
            splnorm:   0.15000    
               vcte:    0.0000    
               rinn:    0.0000    
                rcs:    0.0000      0.0000    
            lambdas:    1.0000      1.0000    
L=1  Nsemic=0  Cnfigmx=2
          n=1  nzeta=2  polorb=1
            splnorm:   0.15000    
               vcte:    0.0000    
               rinn:    0.0000    
                rcs:    0.0000      0.0000    
            lambdas:    1.0000      1.0000    
-------------------------------------------------------------------------------
L=0  Nkbl=1  erefs: 0.17977+309
L=1  Nkbl=1  erefs: 0.17977+309
L=2  Nkbl=1  erefs: 0.17977+309
L=3  Nkbl=1  erefs: 0.17977+309
===============================================================================
</basis_specs>

atom: Called for N                     (Z =   7)

read_vps: Pseudopotential generation method:
read_vps: ATM3      Troullier-Martins                       
Total valence charge:    5.00000

read_vps: Pseudopotential includes a core correction:
read_vps: Pseudo-core for xc-correction

xc_check: Exchange-correlation functional:
xc_check: GGA Perdew, Burke & Ernzerhof 1996
V l=0 = -2*Zval/r beyond r=  1.4606
V l=1 = -2*Zval/r beyond r=  1.4606
V l=2 = -2*Zval/r beyond r=  1.4606
V l=3 = -2*Zval/r beyond r=  1.4606
All V_l potentials equal beyond r=  1.4606
This should be close to max(r_c) in ps generation
All pots = -2*Zval/r beyond r=  1.4606

VLOCAL1: 99.0% of the norm of Vloc inside     20.347 Ry
VLOCAL1: 99.9% of the norm of Vloc inside     46.372 Ry
atom: Maximum radius for 4*pi*r*r*local-pseudopot. charge    1.76189
atom: Maximum radius for r*vlocal+2*Zval:    1.53550
GHOST: No ghost state for L =  0
GHOST: No ghost state for L =  1
GHOST: No ghost state for L =  2
GHOST: No ghost state for L =  3

KBgen: Kleinman-Bylander projectors: 
   l= 0   rc=  1.634559   el= -1.363963   Ekb=  5.296955   kbcos=  0.335621
   l= 1   rc=  1.614250   el= -0.521451   Ekb= -5.259161   kbcos= -0.433408
   l= 2   rc=  1.718383   el=  0.001991   Ekb= -1.271464   kbcos= -0.007566
   l= 3   rc=  1.761893   el=  0.003093   Ekb= -0.494769   kbcos= -0.001015

KBgen: Total number of  Kleinman-Bylander projectors:   16
atom: -------------------------------------------------------------------------

atom: SANKEY-TYPE ORBITALS:
atom: Selected multiple-zeta basis: split     

SPLIT: Orbitals with angular momentum L= 0

SPLIT: Basis orbitals for state 2s

SPLIT: PAO cut-off radius determined from an
SPLIT: energy shift=  0.007350 Ry

   izeta = 1
                 lambda =    1.000000
                     rc =    4.071465
                 energy =   -1.356470
                kinetic =    1.176977
    potential(screened) =   -2.533447
       potential(ionic) =   -8.057990

   izeta = 2
                 rmatch =    2.905100
              splitnorm =    0.150000
                 energy =   -1.158343
                kinetic =    1.813009
    potential(screened) =   -2.971352
       potential(ionic) =   -8.901931

SPLIT: Orbitals with angular momentum L= 1

SPLIT: Basis orbitals for state 2p

SPLIT: PAO cut-off radius determined from an
SPLIT: energy shift=  0.007350 Ry

   izeta = 1
                 lambda =    1.000000
                     rc =    4.972977
                 energy =   -0.513884
                kinetic =    3.441732
    potential(screened) =   -3.955616
       potential(ionic) =   -9.287901

   izeta = 2
                 rmatch =    3.054066
              splitnorm =    0.150000
                 energy =   -0.318226
                kinetic =    5.125348
    potential(screened) =   -5.443573
       potential(ionic) =  -11.380999

POLgen: Perturbative polarization orbital with L=  2

POLgen: Polarization orbital for state 2p

   izeta = 1
                     rc =    4.972977
                 energy =    1.607437
                kinetic =    3.268125
    potential(screened) =   -1.660688
       potential(ionic) =   -5.973652
atom: Total number of Sankey-type orbitals: 13

atm_pop: Valence configuration (for local Pseudopot. screening):
 2s( 2.00)                                                            
 2p( 3.00)                                                            
Vna: chval, zval:    5.00000   5.00000

Vna:  Cut-off radius for the neutral-atom potential:   4.972977
comcore: Pseudo-core radius Rcore=  1.554824

atom: _________________________________________________________________________

<basis_specs>
===============================================================================
C                    Z=   6    Mass=  12.010        Charge= 0.17977+309
Lmxo=1 Lmxkb= 3    BasisType=split      Semic=F
L=0  Nsemic=0  Cnfigmx=2
          n=1  nzeta=2  polorb=0
            splnorm:   0.15000    
               vcte:    0.0000    
               rinn:    0.0000    
                rcs:    0.0000      0.0000    
            lambdas:    1.0000      1.0000    
L=1  Nsemic=0  Cnfigmx=2
          n=1  nzeta=2  polorb=1
            splnorm:   0.15000    
               vcte:    0.0000    
               rinn:    0.0000    
                rcs:    0.0000      0.0000    
            lambdas:    1.0000      1.0000    
-------------------------------------------------------------------------------
L=0  Nkbl=1  erefs: 0.17977+309
L=1  Nkbl=1  erefs: 0.17977+309
L=2  Nkbl=1  erefs: 0.17977+309
L=3  Nkbl=1  erefs: 0.17977+309
===============================================================================
</basis_specs>

atom: Called for C                     (Z =   6)

read_vps: Pseudopotential generation method:
read_vps: ATM3      Troullier-Martins                       
Total valence charge:    4.00000

read_vps: Pseudopotential includes a core correction:
read_vps: Pseudo-core for xc-correction

xc_check: Exchange-correlation functional:
xc_check: GGA Perdew, Burke & Ernzerhof 1996
V l=0 = -2*Zval/r beyond r=  1.5227
V l=1 = -2*Zval/r beyond r=  1.5227
V l=2 = -2*Zval/r beyond r=  1.5227
V l=3 = -2*Zval/r beyond r=  1.5038
All V_l potentials equal beyond r=  1.5227
This should be close to max(r_c) in ps generation
All pots = -2*Zval/r beyond r=  1.5227

VLOCAL1: 99.0% of the norm of Vloc inside     18.722 Ry
VLOCAL1: 99.9% of the norm of Vloc inside     42.668 Ry
atom: Maximum radius for 4*pi*r*r*local-pseudopot. charge    1.83678
atom: Maximum radius for r*vlocal+2*Zval:    1.58088
GHOST: No ghost state for L =  0
GHOST: No ghost state for L =  1
GHOST: No ghost state for L =  2
GHOST: No ghost state for L =  3

KBgen: Kleinman-Bylander projectors: 
   l= 0   rc=  1.704034   el= -1.009801   Ekb=  5.335044   kbcos=  0.316824
   l= 1   rc=  1.704034   el= -0.388707   Ekb= -3.785862   kbcos= -0.366464
   l= 2   rc=  1.791422   el=  0.001971   Ekb= -0.970471   kbcos= -0.009212
   l= 3   rc=  1.859892   el=  0.003065   Ekb= -0.399525   kbcos= -0.001223

KBgen: Total number of  Kleinman-Bylander projectors:   16
atom: -------------------------------------------------------------------------

atom: SANKEY-TYPE ORBITALS:
atom: Selected multiple-zeta basis: split     

SPLIT: Orbitals with angular momentum L= 0

SPLIT: Basis orbitals for state 2s

SPLIT: PAO cut-off radius determined from an
SPLIT: energy shift=  0.007350 Ry

   izeta = 1
                 lambda =    1.000000
                     rc =    4.632753
                 energy =   -1.002270
                kinetic =    0.855760
    potential(screened) =   -1.858031
       potential(ionic) =   -5.417575

   izeta = 2
                 rmatch =    3.431921
              splitnorm =    0.150000
                 energy =   -0.867111
                kinetic =    1.300804
    potential(screened) =   -2.167915
       potential(ionic) =   -5.962684

SPLIT: Orbitals with angular momentum L= 1

SPLIT: Basis orbitals for state 2p

SPLIT: PAO cut-off radius determined from an
SPLIT: energy shift=  0.007350 Ry

   izeta = 1
                 lambda =    1.000000
                     rc =    5.658549
                 energy =   -0.381140
                kinetic =    2.399701
    potential(screened) =   -2.780841
       potential(ionic) =   -6.206085

   izeta = 2
                 rmatch =    3.653288
              splitnorm =    0.150000
                 energy =   -0.249149
                kinetic =    3.542762
    potential(screened) =   -3.791911
       potential(ionic) =   -7.581078

POLgen: Perturbative polarization orbital with L=  2

POLgen: Polarization orbital for state 2p

   izeta = 1
                     rc =    5.658549
                 energy =    1.109913
                kinetic =    2.304789
    potential(screened) =   -1.194876
       potential(ionic) =   -4.013592
atom: Total number of Sankey-type orbitals: 13

atm_pop: Valence configuration (for local Pseudopot. screening):
 2s( 2.00)                                                            
 2p( 2.00)                                                            
Vna: chval, zval:    4.00000   4.00000

Vna:  Cut-off radius for the neutral-atom potential:   5.658549
comcore: Pseudo-core radius Rcore=  1.791422

atom: _________________________________________________________________________

prinput: Basis input ----------------------------------------------------------

PAO.BasisType split     

%block ChemicalSpeciesLabel
    1    7 N                       # Species index, atomic number, species label
    2    6 C                       # Species index, atomic number, species label
%endblock ChemicalSpeciesLabel

%block PAO.Basis                 # Define Basis set
N                     2                    # Species label, number of l-shells
 n=2   0   2                         # n, l, Nzeta 
   4.071      2.905   
   1.000      1.000   
 n=2   1   2 P   1                   # n, l, Nzeta, Polarization, NzetaPol
   4.973      3.054   
   1.000      1.000   
C                     2                    # Species label, number of l-shells
 n=2   0   2                         # n, l, Nzeta 
   4.633      3.432   
   1.000      1.000   
 n=2   1   2 P   1                   # n, l, Nzeta, Polarization, NzetaPol
   5.659      3.653   
   1.000      1.000   
%endblock PAO.Basis

prinput: ----------------------------------------------------------------------

coor:   Atomic-coordinates input format  =     Cartesian coordinates
coor:                                          (in Angstroms)

siesta: Atomic coordinates (Bohr) and species
siesta:      2.23554   1.32097   0.00000  1        1
siesta:     32.50291  13.41944   0.00000  1        2
siesta:     27.84639   5.35379   0.00000  1        3
siesta:     27.84714  21.48508   0.00000  1        4
siesta:     11.54782   1.32097   0.00000  1        5
siesta:     20.86199   1.32097   0.00000  1        6
siesta:      9.21994   5.35379   0.00000  1        7
siesta:     18.53411   5.35379   0.00000  1        8
siesta:      6.89205   9.38661   0.00000  1        9
siesta:     16.20434   9.38661   0.00000  1       10
siesta:     13.87645  13.41944   0.00000  1       11
siesta:     11.54857  17.45226   0.00000  1       12
siesta:     18.53486  21.48508   0.00000  1       13
siesta:     25.51851   9.38661   0.00000  1       14
siesta:     23.19063  13.41944   0.00000  1       15
siesta:     20.86274  17.45226   0.00000  1       16
siesta:     30.17503  17.45226   0.00000  1       17
siesta:     37.16131  21.48508   0.00000  1       18
siesta:      4.56367   2.66461   0.00000  2       19
siesta:     32.50328  21.48508   0.00000  2       20
siesta:     34.83141  22.82873   0.00000  2       21
siesta:     34.83116  17.45226   0.00000  2       22
siesta:     37.15930  18.79590   0.00000  2       23
siesta:     34.83104  14.76308   0.00000  2       24
siesta:     30.17465   9.38661   0.00000  2       25
siesta:     32.50278  10.73026   0.00000  2       26
siesta:     30.17453   6.69743   0.00000  2       27
siesta:     30.17527  22.82873   0.00000  2       28
siesta:      6.89168   1.32097   0.00000  2       29
siesta:      9.21981   2.66461   0.00000  2       30
siesta:     13.87595   2.66461   0.00000  2       31
siesta:     16.20396   1.32097   0.00000  2       32
siesta:     18.53210   2.66461   0.00000  2       33
siesta:     23.19013   2.66461   0.00000  2       34
siesta:     25.51813   1.32097   0.00000  2       35
siesta:     27.84627   2.66461   0.00000  2       36
siesta:      4.56380   5.35379   0.00000  2       37
siesta:      6.89193   6.69743   0.00000  2       38
siesta:     11.54807   6.69743   0.00000  2       39
siesta:     13.87608   5.35379   0.00000  2       40
siesta:     16.20421   6.69743   0.00000  2       41
siesta:     20.86224   6.69743   0.00000  2       42
siesta:     23.19025   5.35379   0.00000  2       43
siesta:     25.51838   6.69743   0.00000  2       44
siesta:      9.22019  10.73026   0.00000  2       45
siesta:     11.54820   9.38661   0.00000  2       46
siesta:     13.87633  10.73026   0.00000  2       47
siesta:     18.53247  10.73026   0.00000  2       48
siesta:     20.86237   9.38661   0.00000  2       49
siesta:     23.19050  10.73026   0.00000  2       50
siesta:      9.22031  13.41944   0.00000  2       51
siesta:     11.54845  14.76308   0.00000  2       52
siesta:     16.20459  14.76308   0.00000  2       53
siesta:     18.53448  13.41944   0.00000  2       54
siesta:     20.86262  14.76308   0.00000  2       55
siesta:     13.87670  18.79590   0.00000  2       56
siesta:     16.20471  17.45226   0.00000  2       57
siesta:     18.53284  18.79590   0.00000  2       58
siesta:     13.87683  21.48508   0.00000  2       59
siesta:     16.20496  22.82873   0.00000  2       60
siesta:     20.86299  22.82873   0.00000  2       61
siesta:     27.84664  10.73026   0.00000  2       62
siesta:     25.51876  14.76308   0.00000  2       63
siesta:     23.19088  18.79590   0.00000  2       64
siesta:     27.84677  13.41944   0.00000  2       65
siesta:     30.17490  14.76308   0.00000  2       66
siesta:     25.51888  17.45226   0.00000  2       67
siesta:     27.84702  18.79590   0.00000  2       68
siesta:     23.19100  21.48508   0.00000  2       69
siesta:     25.51913  22.82873   0.00000  2       70
siesta:     32.50316  18.79590   0.00000  2       71
siesta:     39.48945  22.82873   0.00000  2       72

siesta: System type = slab      

initatomlists: Number of atoms, orbitals, and projectors:     72   936  1152

siesta: ******************** Simulation parameters ****************************
siesta:
siesta: The following are some of the parameters of the simulation.
siesta: A complete list of the parameters used, including default values,
siesta: can be found in file out.fdf
siesta:
redata: Non-Collinear-spin run           =     F
redata: SpinPolarized (Up/Down) run      =     F
redata: Number of spin components        =     1
redata: Long output                      =     F
redata: Number of Atomic Species         =        2
redata: Charge density info will appear in .RHO file
redata: Write Mulliken Pop.              =     NO
redata: Mesh Cutoff                      =   200.0000  Ry
redata: Net charge of the system         =     0.0000 |e|
redata: Max. number of SCF Iter          =      500
redata: SCF convergence failure will abort job
redata: Performing Pulay mixing using    =    10 iterations
redata: Mix DM in first SCF step ?       =     F
redata: Write Pulay info on disk?        =     F
redata: Discard 1st Pulay DM after  kick =     F
redata: New DM Mixing Weight             =     0.0500
redata: New DM Occupancy tolerance       = 0.000000000001
redata: No kicks to SCF
redata: DM Mixing Weight for Kicks       =     0.5000
redata: DM Tolerance for SCF             =     0.000100
redata: Require Energy convergence for SCF =     F
redata: DM Energy tolerance for SCF      =     0.000100 eV
redata: Require Harris convergence for SCF =     F
redata: DM Harris energy tolerance for SCF =     0.000100 eV
redata: Using Saved Data (generic)   =     F
redata: Use continuation files for DM    =     T
redata: Neglect nonoverlap interactions  =     F
redata: Method of Calculation            =     Diagonalization
redata: Divide and Conquer               =     T
redata: Electronic Temperature           =     0.0019  Ry
redata: Fix the spin of the system       =     F
redata: Dynamics option                  =     Verlet MD run
redata: Initial MD time step             =        1
redata:   Final MD time step             =        1
redata: Length of MD time step           =     1.0000  fs
redata: Initial Temperature of MD run    =     0.0000  K
redata: Perform a MD quench              =     F
redata: ***********************************************************************
Total number of electrons:   306.000000
Total ionic charge:   306.000000

* ProcessorY, Blocksize:    2  24

k-point displ. along   1 input, could be:     0.00    0.50
k-point displ. along   2 input, could be:     0.00    0.50
 Kpoints in:          364 . Kpoints trimmed:          352

siesta: k-grid: Number of k-points =   352
siesta: k-grid: Cutoff (effective) =     5.000 Ang
siesta: k-grid: Supercell and displacements
siesta: k-grid:   26   0   0      0.000
siesta: k-grid:    0  26   0      0.000
siesta: k-grid:    0   0   1      0.000
Naive supercell factors:     2    2    2

superc: Internal auxiliary supercell:     2 x     2 x     2  =       8
superc: Number of atoms, orbitals, and projectors:    576   7488   9216

* Maximum dynamic memory allocated =     6 MB

siesta:                 ==============================
                            Begin MD step =      1
                        ==============================

superc: Internal auxiliary supercell:     2 x     2 x     2  =       8
superc: Number of atoms, orbitals, and projectors:    576   7488   9216

outcell: Unit cell vectors (Ang):
       14.785000    0.000000    0.000000
        7.393000   12.805052    0.000000
        0.000000    0.000000   10.000000

outcell: Cell vector modules (Ang)   :   14.785000   14.786000   10.000000
outcell: Cell angles (23,13,12) (deg):     90.0000     90.0000     60.0000
outcell: Cell volume (Ang**3)        :   1893.2269
New_DM. Step:     1
Initializing Density Matrix...

iodm: Reading Density Matrix from files
 Read DM has different structure. Fixing...

InitMesh: MESH =   120 x   120 x    90 =     1296000
InitMesh: Mesh cutoff (required, used) =   200.000   223.865 Ry

* Maximum dynamic memory allocated =   181 MB

stepf: Fermi-Dirac step function

siesta: Program's energy decomposition (eV):
siesta: Ebs     =     -4173.759430
siesta: Eions   =     21296.454266
siesta: Ena     =      4152.145292
siesta: Ekin    =      9124.050699
siesta: Enl     =     -1193.399996
siesta: DEna    =      -325.249200
siesta: DUscf   =       213.200974
siesta: DUext   =         0.000000
siesta: Exc     =     -4516.780152
siesta: eta*DQ  =         0.000000
siesta: Emadel  =         0.000000
siesta: Emeta   =         0.000000
siesta: Emolmec =         0.000000
siesta: Ekinion =         0.000000
siesta: Eharris =    -14138.862208
siesta: Etot    =    -13842.486649
siesta: FreeEng =    -13842.486649

siesta: iscf   Eharris(eV)      E_KS(eV)   FreeEng(eV)   dDmax  Ef(eV)
siesta:    1   -14138.8622   -13842.4866   -13842.4866  1.1851 -1.8144
timer: Routine,Calls,Time,% = IterSCF        1    6591.376  99.82
elaps: Routine,Calls,Wall,% = IterSCF        1     824.890  99.82
siesta:    2   -15517.0108   -13040.5259   -13040.6190  1.4168 -3.0042
siesta:    3   -13810.1294   -13773.6820   -13773.7052  0.4856 -2.1299
siesta:    4   -13810.1278   -13767.8079   -13767.8267  0.4651 -2.2046
siesta:    5   -13794.0411   -13737.9401   -13737.9587  0.1703 -3.2962
siesta:    6   -13794.6244   -13740.2692   -13740.2972  0.1692 -3.4793
siesta:    7   -13790.4541   -13756.4597   -13756.4911  0.1049 -3.5005
siesta:    8   -13789.9932   -13767.6335   -13767.6635  0.1016 -3.4586
siesta:    9   -13789.8728   -13773.1259   -13773.1545  0.0678 -3.4146
siesta:   10   -13789.3211   -13782.4839   -13782.5123  0.0432 -3.3015
siesta:   11   -13789.1173   -13787.7016   -13787.7295  0.0103 -3.2271
siesta:   12   -13789.1084   -13788.1787   -13788.2063  0.0070 -3.2233
siesta:   13   -13789.0973   -13788.5116   -13788.5392  0.0072 -3.2264
siesta:   14   -13789.0967   -13788.7014   -13788.7290  0.0044 -3.2292
siesta:   15   -13789.0984   -13788.8447   -13788.8723  0.0041 -3.2310
siesta:   16   -13789.0964   -13788.7500   -13788.7776  0.0021 -3.2333
siesta:   17   -13789.0949   -13788.9243   -13788.9520  0.0010 -3.2319
siesta:   18   -13789.0948   -13788.9625   -13788.9901  0.0007 -3.2317
siesta:   19   -13789.0948   -13788.9726   -13789.0003  0.0002 -3.2320
siesta:   20   -13789.0948   -13789.0100   -13789.0376  0.0002 -3.2321
siesta:   21   -13789.0948   -13789.0512   -13789.0788  0.0001 -3.2321

siesta: E_KS(eV) =           -13789.0704

siesta: E_KS - E_eggbox =    -13789.0704

siesta: Atomic forces (eV/Ang):
----------------------------------------
   Tot    0.260735   -0.391211    0.000000
----------------------------------------
   Max    0.328879
   Res    0.134706    sqrt( Sum f_i^2 / 3N )
----------------------------------------
   Max    0.328879    constrained

Stress-tensor-Voigt (kbar):       36.46       39.63        0.27       -2.59        0.00        0.00
(Free)E + p*V (eV/cell)   -13819.1758
Target enthalpy (eV/cell)   -13789.0981

siesta: Stress tensor (static) (eV/Ang**3):
         0.022755   -0.001614    0.000000
        -0.001614    0.024738    0.000000
         0.000000    0.000000    0.000168

siesta: Pressure (static):        -25.45405478  kBar

siesta: Stress tensor (total) (eV/Ang**3):
         0.022755   -0.001614    0.000000
        -0.001614    0.024738    0.000000
         0.000000    0.000000    0.000168

siesta: Pressure (total):        -25.45405478  kBar

siesta: Temp_ion =       0.000 K

* Maximum dynamic memory allocated =   196 MB

siesta: Program's energy decomposition (eV):
siesta: Ebs     =     -4435.163138
siesta: Eions   =     21296.454266
siesta: Ena     =      4152.145292
siesta: Ekin    =      9332.920575
siesta: Enl     =     -1328.567884
siesta: DEna    =      -208.039586
siesta: DUscf   =        20.595757
siesta: DUext   =         0.000000
siesta: Exc     =     -4461.670327
siesta: eta*DQ  =         0.000000
siesta: Emadel  =         0.000000
siesta: Emeta   =         0.000000
siesta: Emolmec =         0.000000
siesta: Ekinion =         0.000000
siesta: Eharris =    -13789.094771
siesta: Etot    =    -13789.070439
siesta: FreeEng =    -13789.098099

siesta: Final energy (eV):
siesta:  Band Struct. =   -4435.163138
siesta:       Kinetic =    9332.920575
siesta:       Hartree =   26510.119338
siesta:    Ext. field =       0.000000
siesta:   Exch.-corr. =   -4461.670327
siesta:  Ion-electron =  -61754.014990
siesta:       Ion-ion =   16583.574965
siesta:       Ekinion =       0.000000
siesta:         Total =  -13789.070439

siesta: Atomic forces (eV/Ang):
siesta:      1    0.304128    0.151689    0.000000
siesta:      2    0.324746    0.163214    0.000000
siesta:      3    0.324045    0.162127    0.000000
siesta:      4    0.324073    0.167862    0.000000
siesta:      5    0.325758    0.148288    0.000000
siesta:      6    0.291484    0.150758    0.000000
siesta:      7    0.322204    0.161461    0.000000
siesta:      8    0.289160    0.169375    0.000000
siesta:      9    0.311678    0.166334    0.000000
siesta:     10    0.328879    0.166405    0.000000
siesta:     11    0.327657    0.162087    0.000000
siesta:     12    0.312341    0.163543    0.000000
siesta:     13    0.288871    0.169805    0.000000
siesta:     14    0.322274    0.162638    0.000000
siesta:     15    0.322155    0.161981    0.000000
siesta:     16    0.298093    0.166671    0.000000
siesta:     17    0.322913    0.165094    0.000000
siesta:     18    0.286666    0.169916    0.000000
siesta:     19   -0.115630   -0.067976    0.000000
siesta:     20   -0.223828   -0.139396    0.000000
siesta:     21    0.063732    0.034069    0.000000
siesta:     22   -0.226554   -0.142943    0.000000
siesta:     23    0.054595    0.021236    0.000000
siesta:     24   -0.099187   -0.067548    0.000000
siesta:     25   -0.225762   -0.146978    0.000000
siesta:     26    0.043116    0.018811    0.000000
siesta:     27   -0.100544   -0.067179    0.000000
siesta:     28   -0.116888   -0.041134    0.000000
siesta:     29   -0.224227   -0.164398    0.000000
siesta:     30    0.032358    0.017751    0.000000
siesta:     31   -0.113245   -0.065249    0.000000
siesta:     32   -0.220024   -0.163027    0.000000
siesta:     33    0.067178    0.015861    0.000000
siesta:     34   -0.118280   -0.067431    0.000000
siesta:     35   -0.221522   -0.164820    0.000000
siesta:     36    0.043012    0.017206    0.000000
siesta:     37   -0.239692   -0.139475    0.000000
siesta:     38    0.030110    0.021847    0.000000
siesta:     39   -0.113123   -0.061064    0.000000
siesta:     40   -0.222553   -0.146714    0.000000
siesta:     41    0.056004    0.016757    0.000000
siesta:     42   -0.118046   -0.062154    0.000000
siesta:     43   -0.225270   -0.146068    0.000000
siesta:     44    0.031721    0.020959    0.000000
siesta:     45   -0.114766   -0.060700    0.000000
siesta:     46   -0.227880   -0.146033    0.000000
siesta:     47    0.032205    0.022741    0.000000
siesta:     48   -0.076905   -0.071752    0.000000
siesta:     49   -0.254405   -0.137672    0.000000
siesta:     50    0.027394    0.022038    0.000000
siesta:     51   -0.240852   -0.140195    0.000000
siesta:     52    0.030729    0.023468    0.000000
siesta:     53   -0.083880   -0.067635    0.000000
siesta:     54   -0.264403   -0.135978    0.000000
siesta:     55    0.028184    0.021676    0.000000
siesta:     56   -0.115331   -0.059974    0.000000
siesta:     57   -0.224223   -0.146247    0.000000
siesta:     58    0.067073    0.018339    0.000000
siesta:     59   -0.207438   -0.146768    0.000000
siesta:     60    0.065756    0.032379    0.000000
siesta:     61   -0.122234   -0.043854    0.000000
siesta:     62   -0.113081   -0.060839    0.000000
siesta:     63   -0.112675   -0.061454    0.000000
siesta:     64   -0.117992   -0.061105    0.000000
siesta:     65   -0.228352   -0.145369    0.000000
siesta:     66    0.033285    0.021459    0.000000
siesta:     67   -0.228055   -0.145095    0.000000
siesta:     68    0.032591    0.021663    0.000000
siesta:     69   -0.226642   -0.141840    0.000000
siesta:     70    0.028883    0.035580    0.000000
siesta:     71   -0.113031   -0.062309    0.000000
siesta:     72   -0.137794   -0.035925    0.000000
siesta: ----------------------------------------
siesta:    Tot    0.260735   -0.391211    0.000000

siesta: Stress tensor (static) (eV/Ang**3):
siesta:     0.022755   -0.001614    0.000000
siesta:    -0.001614    0.024738    0.000000
siesta:     0.000000    0.000000    0.000168

siesta: Cell volume =       1893.226895 Ang**3

siesta: Pressure (static):
siesta:                Solid            Molecule  Units
siesta:          -0.00017303         -0.00017192  Ry/Bohr**3
siesta:          -0.01588700         -0.01578486  eV/Ang**3
siesta:         -25.45405478        -25.29040733  kBar
(Free)E+ p_basis*V_orbitals  =      -13760.933826
(Free)Eharris+ p_basis*V_orbitals  =      -13760.977438

siesta: Electric dipole (a.u.)  =    0.000000    0.000000    0.000000
siesta: Electric dipole (Debye) =    0.000000    0.000000    0.000000

* Maximum dynamic memory allocated : Node    0 =   196 MB
* Maximum dynamic memory allocated : Node    1 =    72 MB
* Maximum dynamic memory allocated : Node    2 =    74 MB
* Maximum dynamic memory allocated : Node    3 =   186 MB
* Maximum dynamic memory allocated : Node    4 =   196 MB
* Maximum dynamic memory allocated : Node    5 =    72 MB
* Maximum dynamic memory allocated : Node    6 =    74 MB
* Maximum dynamic memory allocated : Node    7 =   181 MB

* Maximum memory occured during matrixMtoO                    

timer: CPU execution times:
timer:  Routine       Calls   Time/call    Tot.time        %
timer:  siesta            1  135991.550  135991.550   100.00
timer:  Setup             1       3.109       3.109     0.00
timer:  bands             1       0.011       0.011     0.00
timer:  writewave         1       0.016       0.016     0.00
timer:  KSV_init          1       0.004       0.004     0.00
timer:  IterMD            1  135980.315  135980.315    99.99
timer:  hsparse           1       0.254       0.254     0.00
timer:  overlap           1       7.672       7.672     0.01
timer:  IterSCF          21    6467.699  135821.684    99.88
timer:  kinefsm           2       3.964       7.927     0.01
timer:  nlefsm            2      18.476      36.952     0.03
timer:  DHSCF            22      81.711    1797.652     1.32
timer:  DHSCF1            1       0.759       0.759     0.00
timer:  DHSCF2            1      32.296      32.296     0.02
timer:  REORD           178       0.010       1.797     0.00
timer:  POISON           23       2.265      52.090     0.04
timer:  DHSCF3           22      78.825    1734.157     1.28
timer:  rhoofd           22      14.942     328.729     0.24
timer:  cellXC           22       3.543      77.947     0.06
timer:  vmat             22      39.801     875.617     0.64
timer:  MolMec            2       0.000       0.000     0.00
timer:  diagon           21    6384.724  134079.202    98.59
timer:  c-eigval       7392       6.700   49526.666    36.42
timer:  c-buildHS      7392       0.115     852.660     0.63
timer:  cdiag         14784       6.880  101717.981    74.80
timer:  cdiag1        14784       0.427    6319.981     4.65
timer:  cdiag2        14784       1.915   28310.422    20.82
timer:  cdiag3        14784       3.967   58641.910    43.12
timer:  cdiag4        14784       0.205    3023.768     2.22
timer:  c-eigvec       7392       7.242   53536.382    39.37
timer:  c-buildD       7392       4.188   30954.607    22.76
timer:  DHSCF4            1      29.270      29.270     0.02
timer:  dfscf             1      27.471      27.471     0.02
timer:  overfsm           1       0.365       0.365     0.00
timer:  optical           1       7.111       7.111     0.01
  

elaps: ELAPSED times:
elaps:  Routine       Calls   Time/call    Tot.time        %
elaps:  siesta            1   17017.730   17017.730   100.00
elaps:  Setup             1       0.388       0.388     0.00
elaps:  bands             1       0.001       0.001     0.00
elaps:  writewave         1       0.002       0.002     0.00
elaps:  KSV_init          1       0.000       0.000     0.00
elaps:  IterMD            1   17016.325   17016.325    99.99
elaps:  hsparse           1       0.031       0.031     0.00
elaps:  overlap           1       0.964       0.964     0.01
elaps:  IterSCF          21     809.356   16996.482    99.88
elaps:  kinefsm           2       0.493       0.986     0.01
elaps:  nlefsm            2       2.271       4.542     0.03
elaps:  DHSCF            22      10.363     227.988     1.34
elaps:  DHSCF1            1       0.098       0.098     0.00
elaps:  DHSCF2            1       4.034       4.034     0.02
elaps:  REORD           178       0.001       0.230     0.00
elaps:  POISON           23       0.284       6.529     0.04
elaps:  DHSCF3           22       9.862     216.962     1.27
elaps:  rhoofd           22       3.266      71.846     0.42
elaps:  cellXC           22       0.442       9.733     0.06
elaps:  vmat             22       4.979     109.545     0.64
elaps:  MolMec            2       0.000       0.000     0.00
elaps:  diagon           21     798.988   16778.756    98.60
elaps:  c-eigval       7392       0.838    6196.552    36.41
elaps:  c-buildHS      7392       0.016     116.490     0.68
elaps:  cdiag         14784       0.852   12597.944    74.03
elaps:  cdiag1        14784       0.053     783.831     4.61
elaps:  cdiag2        14784       0.240    3542.265    20.82
elaps:  cdiag3        14784       0.497    7347.102    43.17
elaps:  cdiag4        14784       0.026     385.317     2.26
elaps:  c-eigvec       7392       0.895    6617.314    38.88
elaps:  c-buildD       7392       0.535    3956.205    23.25
elaps:  DHSCF4            1       6.734       6.734     0.04
elaps:  dfscf             1       6.366       6.366     0.04
elaps:  overfsm           1       0.046       0.046     0.00
elaps:  optical           1       0.000       0.000     0.00
  
>> End of run:   6-DEC-2015  16:02:23
