Siesta Version:                                        siesta-3.2-pl-3
Architecture  : x86_64-unknown-linux-gnu--unknown
Compiler flags: mpiifort -g -O2 -fPIC -xSSE4.1 -fp-model source -shared-intel 
PARALLEL version

* Running on    8 nodes in parallel
>> Start of run:  25-NOV-2015  23:27:03

                           ***********************       
                           *  WELCOME TO SIESTA  *       
                           ***********************       

reinit: Reading from standard input
************************** Dump of input data file ****************************
#(1) General system descriptors
SystemName            GRP_doping    # Descriptive name of the system
SystemLabel           GRP_doping    # Short name for naming files
%include STRUCT.fdf
%include KPT.fdf
%include BASIS.fdf
#%include TS.fdf # for transiesta calculation
#(4) DFT, Grid, SCF
XC.functional         GGA           # LDA or GGA (default = LDA)
XC.authors            PBE           # CA (Ceperley-Aldr) = PZ
                                    #    (Perdew-Zunger) - LDA - Default
                                    # PW92 (Perdew-Wang-92) - LDA
                                    # PBE (Perdew-Burke-Ernzerhof) - GGA
MeshCutoff            200.000000    Ry      # Default: 50.0 Ry ~ 0.444 Bohr
                                    #         100.0 Ry ~ 0.314 Bohr
MaxSCFIterations      500           # Default: 50
DM.MixingWeight       0.05          # Default: 0.25
DM.NumberPulay        10            # Default: 0
DM.PulayOnFile        F             # SystemLabel.P1, SystemLabel.P2
DM.Tolerance          1.d-4         # Default: 1.d-4
DM.UseSaveDM          .true.        # because of the bug
SCFMustConverge       .true.
NeglNonOverlapInt     F             # Default: F
#(5) Eigenvalue problem: order-N or diagonalization
SolutionMethod        Diagon        # or Transiesta
ElectronicTemperature 300.0 K       # Default: 300.0 K
#(6) Molecular dynamics and relaxations
#MD.TypeOfRun          CG            # Type of dynamics:
#MD.VariableCell       F
#MD.NumCGsteps         0           # 0 for single-point / 100 for gopt
#MD.MaxCGDispl         0.2 Bohr      # Default: 0.2 Bohr
#MD.MaxForceTol        0.02 eV/Ang   # Default: 0.04 eV/Ang
#MD.MaxStressTol       1.0 GPa       # Default: 1.0 GPa
# Geometry Constraints
#%block GeometryConstraints
#	position from 1 to 44
#%endblock GeometryConstraints
************************** End of input data file *****************************

reinit: -----------------------------------------------------------------------
reinit: System Name: GRP_doping
reinit: -----------------------------------------------------------------------
reinit: System Label: GRP_doping                                                  
reinit: -----------------------------------------------------------------------

initatom: Reading input for the pseudopotentials and atomic orbitals ----------
 Species number:            1  Label: B Atomic number:           5
 Species number:            2  Label: C Atomic number:           6
Ground state valence configuration:   2s02  2p01
Reading pseudopotential information in formatted form from B.psf

Valence configuration for pseudopotential generation:
2s( 2.00) rc: 1.74
2p( 1.00) rc: 1.74
3d( 0.00) rc: 1.74
4f( 0.00) rc: 1.74
Ground state valence configuration:   2s02  2p02
Reading pseudopotential information in formatted form from C.psf

Valence configuration for pseudopotential generation:
2s( 2.00) rc: 1.54
2p( 2.00) rc: 1.54
3d( 0.00) rc: 1.54
4f( 0.00) rc: 1.54
For B, standard SIESTA heuristics set lmxkb to 3
 (one more than the basis l, including polarization orbitals).
Use PS.lmax or PS.KBprojectors blocks to override.
For C, standard SIESTA heuristics set lmxkb to 3
 (one more than the basis l, including polarization orbitals).
Use PS.lmax or PS.KBprojectors blocks to override.

<basis_specs>
===============================================================================
B                    Z=   5    Mass=  10.810        Charge= 0.17977+309
Lmxo=1 Lmxkb= 3    BasisType=split      Semic=F
L=0  Nsemic=0  Cnfigmx=2
          n=1  nzeta=2  polorb=0
            splnorm:   0.15000    
               vcte:    0.0000    
               rinn:    0.0000    
                rcs:    0.0000      0.0000    
            lambdas:    1.0000      1.0000    
L=1  Nsemic=0  Cnfigmx=2
          n=1  nzeta=2  polorb=1
            splnorm:   0.15000    
               vcte:    0.0000    
               rinn:    0.0000    
                rcs:    0.0000      0.0000    
            lambdas:    1.0000      1.0000    
-------------------------------------------------------------------------------
L=0  Nkbl=1  erefs: 0.17977+309
L=1  Nkbl=1  erefs: 0.17977+309
L=2  Nkbl=1  erefs: 0.17977+309
L=3  Nkbl=1  erefs: 0.17977+309
===============================================================================
</basis_specs>

atom: Called for B                     (Z =   5)

read_vps: Pseudopotential generation method:
read_vps: ATM3      Troullier-Martins                       
Total valence charge:    3.00000

read_vps: Pseudopotential includes a core correction:
read_vps: Pseudo-core for xc-correction

xc_check: Exchange-correlation functional:
xc_check: GGA Perdew, Burke & Ernzerhof 1996
V l=0 = -2*Zval/r beyond r=  1.7165
V l=1 = -2*Zval/r beyond r=  1.7165
V l=2 = -2*Zval/r beyond r=  1.7165
V l=3 = -2*Zval/r beyond r=  1.6951
All V_l potentials equal beyond r=  1.7165
This should be close to max(r_c) in ps generation
All pots = -2*Zval/r beyond r=  1.7165

VLOCAL1: 99.0% of the norm of Vloc inside     14.733 Ry
VLOCAL1: 99.9% of the norm of Vloc inside     33.577 Ry
atom: Maximum radius for 4*pi*r*r*local-pseudopot. charge    2.04484
atom: Maximum radius for r*vlocal+2*Zval:    1.75994
GHOST: No ghost state for L =  0
GHOST: No ghost state for L =  1
GHOST: No ghost state for L =  2
GHOST: No ghost state for L =  3

KBgen: Kleinman-Bylander projectors: 
   l= 0   rc=  1.897051   el= -0.693730   Ekb=  4.595746   kbcos=  0.286105
   l= 1   rc=  1.920920   el= -0.265236   Ekb= -2.350715   kbcos= -0.315747
   l= 2   rc=  2.044840   el=  0.002055   Ekb= -0.690767   kbcos= -0.013822
   l= 3   rc=  2.149707   el=  0.003188   Ekb= -0.315358   kbcos= -0.002055

KBgen: Total number of  Kleinman-Bylander projectors:   16
atom: -------------------------------------------------------------------------

atom: SANKEY-TYPE ORBITALS:
atom: Selected multiple-zeta basis: split     

SPLIT: Orbitals with angular momentum L= 0

SPLIT: Basis orbitals for state 2s

SPLIT: PAO cut-off radius determined from an
SPLIT: energy shift=  0.007350 Ry

   izeta = 1
                 lambda =    1.000000
                     rc =    5.422032
                 energy =   -0.686029
                kinetic =    0.576707
    potential(screened) =   -1.262736
       potential(ionic) =   -3.271094

   izeta = 2
                 rmatch =    4.222573
              splitnorm =    0.150000
                 energy =   -0.602132
                kinetic =    0.858975
    potential(screened) =   -1.461107
       potential(ionic) =   -3.582536

SPLIT: Orbitals with angular momentum L= 1

SPLIT: Basis orbitals for state 2p

SPLIT: PAO cut-off radius determined from an
SPLIT: energy shift=  0.007350 Ry

   izeta = 1
                 lambda =    1.000000
                     rc =    6.790259
                 energy =   -0.258578
                kinetic =    1.481412
    potential(screened) =   -1.739989
       potential(ionic) =   -3.657461

   izeta = 2
                 rmatch =    4.608740
              splitnorm =    0.150000
                 energy =   -0.173757
                kinetic =    2.186690
    potential(screened) =   -2.360447
       potential(ionic) =   -4.464260

POLgen: Perturbative polarization orbital with L=  2

POLgen: Polarization orbital for state 2p

   izeta = 1
                     rc =    6.790259
                 energy =    0.684082
                kinetic =    1.471481
    potential(screened) =   -0.787399
       potential(ionic) =   -2.406985
atom: Total number of Sankey-type orbitals: 13

atm_pop: Valence configuration (for local Pseudopot. screening):
 2s( 2.00)                                                            
 2p( 1.00)                                                            
Vna: chval, zval:    3.00000   3.00000

Vna:  Cut-off radius for the neutral-atom potential:   6.790259
comcore: Pseudo-core radius Rcore=  2.122997

atom: _________________________________________________________________________

<basis_specs>
===============================================================================
C                    Z=   6    Mass=  12.010        Charge= 0.17977+309
Lmxo=1 Lmxkb= 3    BasisType=split      Semic=F
L=0  Nsemic=0  Cnfigmx=2
          n=1  nzeta=2  polorb=0
            splnorm:   0.15000    
               vcte:    0.0000    
               rinn:    0.0000    
                rcs:    0.0000      0.0000    
            lambdas:    1.0000      1.0000    
L=1  Nsemic=0  Cnfigmx=2
          n=1  nzeta=2  polorb=1
            splnorm:   0.15000    
               vcte:    0.0000    
               rinn:    0.0000    
                rcs:    0.0000      0.0000    
            lambdas:    1.0000      1.0000    
-------------------------------------------------------------------------------
L=0  Nkbl=1  erefs: 0.17977+309
L=1  Nkbl=1  erefs: 0.17977+309
L=2  Nkbl=1  erefs: 0.17977+309
L=3  Nkbl=1  erefs: 0.17977+309
===============================================================================
</basis_specs>

atom: Called for C                     (Z =   6)

read_vps: Pseudopotential generation method:
read_vps: ATM3      Troullier-Martins                       
Total valence charge:    4.00000

read_vps: Pseudopotential includes a core correction:
read_vps: Pseudo-core for xc-correction

xc_check: Exchange-correlation functional:
xc_check: GGA Perdew, Burke & Ernzerhof 1996
V l=0 = -2*Zval/r beyond r=  1.5227
V l=1 = -2*Zval/r beyond r=  1.5227
V l=2 = -2*Zval/r beyond r=  1.5227
V l=3 = -2*Zval/r beyond r=  1.5038
All V_l potentials equal beyond r=  1.5227
This should be close to max(r_c) in ps generation
All pots = -2*Zval/r beyond r=  1.5227

VLOCAL1: 99.0% of the norm of Vloc inside     18.722 Ry
VLOCAL1: 99.9% of the norm of Vloc inside     42.668 Ry
atom: Maximum radius for 4*pi*r*r*local-pseudopot. charge    1.83678
atom: Maximum radius for r*vlocal+2*Zval:    1.58088
GHOST: No ghost state for L =  0
GHOST: No ghost state for L =  1
GHOST: No ghost state for L =  2
GHOST: No ghost state for L =  3

KBgen: Kleinman-Bylander projectors: 
   l= 0   rc=  1.704034   el= -1.009801   Ekb=  5.335044   kbcos=  0.316824
   l= 1   rc=  1.704034   el= -0.388707   Ekb= -3.785862   kbcos= -0.366464
   l= 2   rc=  1.791422   el=  0.001971   Ekb= -0.970471   kbcos= -0.009212
   l= 3   rc=  1.859892   el=  0.003065   Ekb= -0.399525   kbcos= -0.001223

KBgen: Total number of  Kleinman-Bylander projectors:   16
atom: -------------------------------------------------------------------------

atom: SANKEY-TYPE ORBITALS:
atom: Selected multiple-zeta basis: split     

SPLIT: Orbitals with angular momentum L= 0

SPLIT: Basis orbitals for state 2s

SPLIT: PAO cut-off radius determined from an
SPLIT: energy shift=  0.007350 Ry

   izeta = 1
                 lambda =    1.000000
                     rc =    4.632753
                 energy =   -1.002270
                kinetic =    0.855760
    potential(screened) =   -1.858031
       potential(ionic) =   -5.417575

   izeta = 2
                 rmatch =    3.431921
              splitnorm =    0.150000
                 energy =   -0.867111
                kinetic =    1.300804
    potential(screened) =   -2.167915
       potential(ionic) =   -5.962684

SPLIT: Orbitals with angular momentum L= 1

SPLIT: Basis orbitals for state 2p

SPLIT: PAO cut-off radius determined from an
SPLIT: energy shift=  0.007350 Ry

   izeta = 1
                 lambda =    1.000000
                     rc =    5.658549
                 energy =   -0.381140
                kinetic =    2.399701
    potential(screened) =   -2.780841
       potential(ionic) =   -6.206085

   izeta = 2
                 rmatch =    3.653288
              splitnorm =    0.150000
                 energy =   -0.249149
                kinetic =    3.542762
    potential(screened) =   -3.791911
       potential(ionic) =   -7.581078

POLgen: Perturbative polarization orbital with L=  2

POLgen: Polarization orbital for state 2p

   izeta = 1
                     rc =    5.658549
                 energy =    1.109913
                kinetic =    2.304789
    potential(screened) =   -1.194876
       potential(ionic) =   -4.013592
atom: Total number of Sankey-type orbitals: 13

atm_pop: Valence configuration (for local Pseudopot. screening):
 2s( 2.00)                                                            
 2p( 2.00)                                                            
Vna: chval, zval:    4.00000   4.00000

Vna:  Cut-off radius for the neutral-atom potential:   5.658549
comcore: Pseudo-core radius Rcore=  1.791422

atom: _________________________________________________________________________

prinput: Basis input ----------------------------------------------------------

PAO.BasisType split     

%block ChemicalSpeciesLabel
    1    5 B                       # Species index, atomic number, species label
    2    6 C                       # Species index, atomic number, species label
%endblock ChemicalSpeciesLabel

%block PAO.Basis                 # Define Basis set
B                     2                    # Species label, number of l-shells
 n=2   0   2                         # n, l, Nzeta 
   5.422      4.223   
   1.000      1.000   
 n=2   1   2 P   1                   # n, l, Nzeta, Polarization, NzetaPol
   6.790      4.609   
   1.000      1.000   
C                     2                    # Species label, number of l-shells
 n=2   0   2                         # n, l, Nzeta 
   4.633      3.432   
   1.000      1.000   
 n=2   1   2 P   1                   # n, l, Nzeta, Polarization, NzetaPol
   5.659      3.653   
   1.000      1.000   
%endblock PAO.Basis

prinput: ----------------------------------------------------------------------

coor:   Atomic-coordinates input format  =     Cartesian coordinates
coor:                                          (in Angstroms)

siesta: Atomic coordinates (Bohr) and species
siesta:      2.23554   1.32097   0.00000  1        1
siesta:     16.20434   9.38661   0.00000  1        2
siesta:      4.56367   2.66461   0.00000  2        3
siesta:     32.50328  21.48508   0.00000  2        4
siesta:     34.83141  22.82873   0.00000  2        5
siesta:     34.83116  17.45226   0.00000  2        6
siesta:     37.15930  18.79590   0.00000  2        7
siesta:     32.50291  13.41944   0.00000  2        8
siesta:     34.83104  14.76308   0.00000  2        9
siesta:     30.17465   9.38661   0.00000  2       10
siesta:     32.50278  10.73026   0.00000  2       11
siesta:     27.84639   5.35379   0.00000  2       12
siesta:     30.17453   6.69743   0.00000  2       13
siesta:     27.84714  21.48508   0.00000  2       14
siesta:     30.17527  22.82873   0.00000  2       15
siesta:      6.89168   1.32097   0.00000  2       16
siesta:      9.21981   2.66461   0.00000  2       17
siesta:     11.54782   1.32097   0.00000  2       18
siesta:     13.87595   2.66461   0.00000  2       19
siesta:     16.20396   1.32097   0.00000  2       20
siesta:     18.53210   2.66461   0.00000  2       21
siesta:     20.86199   1.32097   0.00000  2       22
siesta:     23.19013   2.66461   0.00000  2       23
siesta:     25.51813   1.32097   0.00000  2       24
siesta:     27.84627   2.66461   0.00000  2       25
siesta:      4.56380   5.35379   0.00000  2       26
siesta:      6.89193   6.69743   0.00000  2       27
siesta:      9.21994   5.35379   0.00000  2       28
siesta:     11.54807   6.69743   0.00000  2       29
siesta:     13.87608   5.35379   0.00000  2       30
siesta:     16.20421   6.69743   0.00000  2       31
siesta:     18.53411   5.35379   0.00000  2       32
siesta:     20.86224   6.69743   0.00000  2       33
siesta:     23.19025   5.35379   0.00000  2       34
siesta:     25.51838   6.69743   0.00000  2       35
siesta:      6.89205   9.38661   0.00000  2       36
siesta:      9.22019  10.73026   0.00000  2       37
siesta:     11.54820   9.38661   0.00000  2       38
siesta:     13.87633  10.73026   0.00000  2       39
siesta:     18.53247  10.73026   0.00000  2       40
siesta:     20.86237   9.38661   0.00000  2       41
siesta:     23.19050  10.73026   0.00000  2       42
siesta:      9.22031  13.41944   0.00000  2       43
siesta:     11.54845  14.76308   0.00000  2       44
siesta:     13.87645  13.41944   0.00000  2       45
siesta:     16.20459  14.76308   0.00000  2       46
siesta:     18.53448  13.41944   0.00000  2       47
siesta:     20.86262  14.76308   0.00000  2       48
siesta:     11.54857  17.45226   0.00000  2       49
siesta:     13.87670  18.79590   0.00000  2       50
siesta:     16.20471  17.45226   0.00000  2       51
siesta:     18.53284  18.79590   0.00000  2       52
siesta:     13.87683  21.48508   0.00000  2       53
siesta:     16.20496  22.82873   0.00000  2       54
siesta:     18.53486  21.48508   0.00000  2       55
siesta:     20.86299  22.82873   0.00000  2       56
siesta:     25.51851   9.38661   0.00000  2       57
siesta:     27.84664  10.73026   0.00000  2       58
siesta:     23.19063  13.41944   0.00000  2       59
siesta:     25.51876  14.76308   0.00000  2       60
siesta:     20.86274  17.45226   0.00000  2       61
siesta:     23.19088  18.79590   0.00000  2       62
siesta:     27.84677  13.41944   0.00000  2       63
siesta:     30.17490  14.76308   0.00000  2       64
siesta:     25.51888  17.45226   0.00000  2       65
siesta:     27.84702  18.79590   0.00000  2       66
siesta:     23.19100  21.48508   0.00000  2       67
siesta:     25.51913  22.82873   0.00000  2       68
siesta:     30.17503  17.45226   0.00000  2       69
siesta:     32.50316  18.79590   0.00000  2       70
siesta:     37.16131  21.48508   0.00000  2       71
siesta:     39.48945  22.82873   0.00000  2       72

siesta: System type = slab      

initatomlists: Number of atoms, orbitals, and projectors:     72   936  1152

siesta: ******************** Simulation parameters ****************************
siesta:
siesta: The following are some of the parameters of the simulation.
siesta: A complete list of the parameters used, including default values,
siesta: can be found in file out.fdf
siesta:
redata: Non-Collinear-spin run           =     F
redata: SpinPolarized (Up/Down) run      =     F
redata: Number of spin components        =     1
redata: Long output                      =     F
redata: Number of Atomic Species         =        2
redata: Charge density info will appear in .RHO file
redata: Write Mulliken Pop.              =     NO
redata: Mesh Cutoff                      =   200.0000  Ry
redata: Net charge of the system         =     0.0000 |e|
redata: Max. number of SCF Iter          =      500
redata: SCF convergence failure will abort job
redata: Performing Pulay mixing using    =    10 iterations
redata: Mix DM in first SCF step ?       =     F
redata: Write Pulay info on disk?        =     F
redata: Discard 1st Pulay DM after  kick =     F
redata: New DM Mixing Weight             =     0.0500
redata: New DM Occupancy tolerance       = 0.000000000001
redata: No kicks to SCF
redata: DM Mixing Weight for Kicks       =     0.5000
redata: DM Tolerance for SCF             =     0.000100
redata: Require Energy convergence for SCF =     F
redata: DM Energy tolerance for SCF      =     0.000100 eV
redata: Require Harris convergence for SCF =     F
redata: DM Harris energy tolerance for SCF =     0.000100 eV
redata: Using Saved Data (generic)   =     F
redata: Use continuation files for DM    =     T
redata: Neglect nonoverlap interactions  =     F
redata: Method of Calculation            =     Diagonalization
redata: Divide and Conquer               =     T
redata: Electronic Temperature           =     0.0019  Ry
redata: Fix the spin of the system       =     F
redata: Dynamics option                  =     Verlet MD run
redata: Initial MD time step             =        1
redata:   Final MD time step             =        1
redata: Length of MD time step           =     1.0000  fs
redata: Initial Temperature of MD run    =     0.0000  K
redata: Perform a MD quench              =     F
redata: ***********************************************************************
Total number of electrons:   286.000000
Total ionic charge:   286.000000

* ProcessorY, Blocksize:    2  24

k-point displ. along   1 input, could be:     0.00    0.50
k-point displ. along   2 input, could be:     0.00    0.50
 Kpoints in:          364 . Kpoints trimmed:          352

siesta: k-grid: Number of k-points =   352
siesta: k-grid: Cutoff (effective) =     5.000 Ang
siesta: k-grid: Supercell and displacements
siesta: k-grid:   26   0   0      0.000
siesta: k-grid:    0  26   0      0.000
siesta: k-grid:    0   0   1      0.000
Naive supercell factors:     2    2    2

superc: Internal auxiliary supercell:     2 x     2 x     2  =       8
superc: Number of atoms, orbitals, and projectors:    576   7488   9216

* Maximum dynamic memory allocated =     6 MB

siesta:                 ==============================
                            Begin MD step =      1
                        ==============================

superc: Internal auxiliary supercell:     2 x     2 x     2  =       8
superc: Number of atoms, orbitals, and projectors:    576   7488   9216

outcell: Unit cell vectors (Ang):
       14.785000    0.000000    0.000000
        7.393000   12.805052    0.000000
        0.000000    0.000000   10.000000

outcell: Cell vector modules (Ang)   :   14.785000   14.786000   10.000000
outcell: Cell angles (23,13,12) (deg):     90.0000     90.0000     60.0000
outcell: Cell volume (Ang**3)        :   1893.2269
New_DM. Step:     1
Initializing Density Matrix...

iodm: Reading Density Matrix from files

InitMesh: MESH =   120 x   120 x    90 =     1296000
InitMesh: Mesh cutoff (required, used) =   200.000   223.865 Ry

* Maximum dynamic memory allocated =   200 MB

stepf: Fermi-Dirac step function

siesta: Program's energy decomposition (eV):
siesta: Ebs     =     -3883.437975
siesta: Eions   =     18146.897649
siesta: Ena     =      3930.206828
siesta: Ekin    =      7735.857513
siesta: Enl     =      -770.060827
siesta: DEna    =      -297.902095
siesta: DUscf   =        27.531593
siesta: DUext   =         0.000000
siesta: Exc     =     -4046.400458
siesta: eta*DQ  =         0.000000
siesta: Emadel  =         0.000000
siesta: Emeta   =         0.000000
siesta: Emolmec =         0.000000
siesta: Ekinion =         0.000000
siesta: Eharris =    -11567.663717
siesta: Etot    =    -11567.665094
siesta: FreeEng =    -11567.665094

siesta: iscf   Eharris(eV)      E_KS(eV)   FreeEng(eV)   dDmax  Ef(eV)
siesta:    1   -11567.6637   -11567.6651   -11567.6651  0.0005 -5.3204
timer: Routine,Calls,Time,% = IterSCF        1    8120.130  99.85
elaps: Routine,Calls,Wall,% = IterSCF        1    1016.666  99.85
siesta:    2   -11567.6638   -11567.6637   -11567.6756  0.0003 -5.3216
siesta:    3   -11567.6638   -11567.6642   -11567.6761  0.0001 -5.3210
siesta:    4   -11567.6637   -11567.6638   -11567.6757  0.0000 -5.3206

siesta: E_KS(eV) =           -11567.6637

siesta: E_KS - E_eggbox =    -11567.6637

siesta: Atomic forces (eV/Ang):
----------------------------------------
   Tot    0.191828   -0.269439    0.000000
----------------------------------------
   Max    3.440982
   Res    0.590443    sqrt( Sum f_i^2 / 3N )
----------------------------------------
   Max    3.440982    constrained

Stress-tensor-Voigt (kbar):      -54.01      -53.14       -0.05       -0.41        0.00        0.00
(Free)E + p*V (eV/cell)   -11525.4530
Target enthalpy (eV/cell)   -11567.6756

siesta: Stress tensor (static) (eV/Ang**3):
        -0.033711   -0.000257    0.000000
        -0.000257   -0.033165    0.000000
         0.000000    0.000000   -0.000030

siesta: Pressure (static):         35.73204554  kBar

siesta: Stress tensor (total) (eV/Ang**3):
        -0.033711   -0.000257    0.000000
        -0.000257   -0.033165    0.000000
         0.000000    0.000000   -0.000030

siesta: Pressure (total):         35.73204554  kBar

siesta: Temp_ion =       0.000 K

* Maximum dynamic memory allocated =   214 MB

siesta: Program's energy decomposition (eV):
siesta: Ebs     =     -3883.408449
siesta: Eions   =     18146.897649
siesta: Ena     =      3930.206828
siesta: Ekin    =      7735.875105
siesta: Enl     =      -770.065418
siesta: DEna    =      -297.909990
siesta: DUscf   =        27.531055
siesta: DUext   =         0.000000
siesta: Exc     =     -4046.403652
siesta: eta*DQ  =         0.000000
siesta: Emadel  =         0.000000
siesta: Emeta   =         0.000000
siesta: Emolmec =         0.000000
siesta: Ekinion =         0.000000
siesta: Eharris =    -11567.663724
siesta: Etot    =    -11567.663721
siesta: FreeEng =    -11567.675602

siesta: Final energy (eV):
siesta:  Band Struct. =   -3883.408449
siesta:       Kinetic =    7735.875105
siesta:       Hartree =   22791.156469
siesta:    Ext. field =       0.000000
siesta:   Exch.-corr. =   -4046.403652
siesta:  Ion-electron =  -52699.601607
siesta:       Ion-ion =   14651.309964
siesta:       Ekinion =       0.000000
siesta:         Total =  -11567.663721

siesta: Atomic forces (eV/Ang):
siesta:      1   -0.005426   -0.026881    0.000000
siesta:      2    0.016751   -0.006196    0.000000
siesta:      3    2.906062    1.676928    0.000000
siesta:      4    0.031845    0.017889    0.000000
siesta:      5   -0.026961    0.050238    0.000000
siesta:      6    0.038091   -0.002762    0.000000
siesta:      7    0.018904   -0.068586    0.000000
siesta:      8    0.017936   -0.043405    0.000000
siesta:      9    0.007050    0.001378    0.000000
siesta:     10    0.008330   -0.257923    0.000000
siesta:     11    0.070942    0.035146    0.000000
siesta:     12   -0.556340   -0.244823    0.000000
siesta:     13    0.012107    0.314175    0.000000
siesta:     14   -0.014712    0.016130    0.000000
siesta:     15   -0.004206    0.018410    0.000000
siesta:     16    0.088708    0.574025    0.000000
siesta:     17    0.055616   -0.256602    0.000000
siesta:     18    0.066841   -0.059278    0.000000
siesta:     19   -0.167681   -0.044345    0.000000
siesta:     20    0.012792    0.005084    0.000000
siesta:     21    0.204149   -0.049007    0.000000
siesta:     22   -0.085423   -0.054191    0.000000
siesta:     23   -0.062512   -0.257941    0.000000
siesta:     24   -0.068513    0.572442    0.000000
siesta:     25   -2.894703    1.670185    0.000000
siesta:     26    0.558565   -0.238367    0.000000
siesta:     27   -0.197011    0.181252    0.000000
siesta:     28    0.236177    0.120567    0.000000
siesta:     29   -0.282026   -0.159814    0.000000
siesta:     30    0.519363   -0.302431    0.000000
siesta:     31    0.021230   -3.440982    0.000000
siesta:     32   -0.543382   -0.292524    0.000000
siesta:     33    0.277925   -0.159652    0.000000
siesta:     34   -0.222239    0.120360    0.000000
siesta:     35    0.191165    0.180536    0.000000
siesta:     36   -0.002476    0.055235    0.000000
siesta:     37   -0.124479   -0.117629    0.000000
siesta:     38    0.012668    0.571841    0.000000
siesta:     39   -2.989246    1.725411    0.000000
siesta:     40    3.027439    1.721086    0.000000
siesta:     41   -0.028761    0.582171    0.000000
siesta:     42    0.115229   -0.118459    0.000000
siesta:     43    0.022853   -0.024176    0.000000
siesta:     44    0.042935    0.170119    0.000000
siesta:     45   -0.492570   -0.310139    0.000000
siesta:     46    0.028507    0.325779    0.000000
siesta:     47    0.471484   -0.300769    0.000000
siesta:     48   -0.048400    0.168897    0.000000
siesta:     49   -0.056407   -0.043731    0.000000
siesta:     50   -0.253589    0.081424    0.000000
siesta:     51    0.008202   -0.274598    0.000000
siesta:     52    0.289256    0.073995    0.000000
siesta:     53    0.509029   -0.388351    0.000000
siesta:     54    0.026580   -3.319595    0.000000
siesta:     55   -0.516580   -0.377666    0.000000
siesta:     56    0.262130   -0.133426    0.000000
siesta:     57    0.002028    0.049104    0.000000
siesta:     58   -0.059763    0.040787    0.000000
siesta:     59   -0.024392   -0.029724    0.000000
siesta:     60    0.004608    0.006277    0.000000
siesta:     61    0.027669   -0.038390    0.000000
siesta:     62   -0.002928   -0.066284    0.000000
siesta:     63   -0.002632   -0.041774    0.000000
siesta:     64   -0.001864    0.018567    0.000000
siesta:     65   -0.023720   -0.004852    0.000000
siesta:     66    0.011516   -0.006574    0.000000
siesta:     67   -0.205181    0.114388    0.000000
siesta:     68    0.056451    0.055870    0.000000
siesta:     69    0.006727   -0.011019    0.000000
siesta:     70   -0.014931   -0.006264    0.000000
siesta:     71    0.178103    0.120779    0.000000
siesta:     72   -0.293080   -0.126782    0.000000
siesta: ----------------------------------------
siesta:    Tot    0.191828   -0.269439    0.000000

siesta: Stress tensor (static) (eV/Ang**3):
siesta:    -0.033711   -0.000257    0.000000
siesta:    -0.000257   -0.033165    0.000000
siesta:     0.000000    0.000000   -0.000030

siesta: Cell volume =       1893.226895 Ang**3

siesta: Pressure (static):
siesta:                Solid            Molecule  Units
siesta:           0.00024290          0.00037694  Ry/Bohr**3
siesta:           0.02230195          0.03460891  eV/Ang**3
siesta:          35.73204554         55.45019177  kBar
(Free)E+ p_basis*V_orbitals  =      -11536.306076
(Free)Eharris+ p_basis*V_orbitals  =      -11536.305987

siesta: Electric dipole (a.u.)  =    0.000000    0.000000    0.000000
siesta: Electric dipole (Debye) =    0.000000    0.000000    0.000000

* Maximum dynamic memory allocated : Node    0 =   214 MB
* Maximum dynamic memory allocated : Node    1 =    77 MB
* Maximum dynamic memory allocated : Node    2 =    80 MB
* Maximum dynamic memory allocated : Node    3 =   202 MB
* Maximum dynamic memory allocated : Node    4 =   212 MB
* Maximum dynamic memory allocated : Node    5 =    76 MB
* Maximum dynamic memory allocated : Node    6 =    79 MB
* Maximum dynamic memory allocated : Node    7 =   195 MB

* Maximum memory occured during matrixMtoO                    

timer: CPU execution times:
timer:  Routine       Calls   Time/call    Tot.time        %
timer:  siesta            1   32463.875   32463.875   100.00
timer:  Setup             1       3.089       3.089     0.01
timer:  bands             1       0.010       0.010     0.00
timer:  writewave         1       0.015       0.015     0.00
timer:  KSV_init          1       0.002       0.002     0.00
timer:  IterMD            1   32452.638   32452.638    99.97
timer:  hsparse           1       0.403       0.403     0.00
timer:  overlap           1       4.708       4.708     0.01
timer:  IterSCF           4    8066.558   32266.234    99.39
timer:  kinefsm           2       2.453       4.907     0.02
timer:  nlefsm            2      19.764      39.528     0.12
timer:  DHSCF             5     115.772     578.860     1.78
timer:  DHSCF1            1       1.046       1.046     0.00
timer:  DHSCF2            1      42.679      42.679     0.13
timer:  REORD            42       0.014       0.602     0.00
timer:  POISON            6       3.859      23.152     0.07
timer:  DHSCF3            5      99.955     499.773     1.54
timer:  rhoofd            5      18.334      91.672     0.28
timer:  cellXC            5       3.586      17.931     0.06
timer:  vmat              5      51.784     258.921     0.80
timer:  MolMec            2       0.000       0.000     0.00
timer:  diagon            4    7944.636   31778.545    97.89
timer:  c-eigval       1408       7.276   10244.837    31.56
timer:  c-buildHS      1408       0.216     303.656     0.94
timer:  cdiag          2816       7.458   21001.641    64.69
timer:  cdiag1         2816       0.466    1311.894     4.04
timer:  cdiag2         2816       1.988    5598.709    17.25
timer:  cdiag3         2816       4.184   11781.941    36.29
timer:  cdiag4         2816       0.251     707.489     2.18
timer:  c-eigvec       1408       7.943   11183.705    34.45
timer:  c-buildD       1408       7.340   10334.260    31.83
timer:  DHSCF4            1      34.886      34.886     0.11
timer:  dfscf             1      32.398      32.398     0.10
timer:  overfsm           1       0.399       0.399     0.00
timer:  optical           1       7.126       7.126     0.02
  

elaps: ELAPSED times:
elaps:  Routine       Calls   Time/call    Tot.time        %
elaps:  siesta            1    4064.494    4064.494   100.00
elaps:  Setup             1       0.385       0.385     0.01
elaps:  bands             1       0.001       0.001     0.00
elaps:  writewave         1       0.002       0.002     0.00
elaps:  KSV_init          1       0.000       0.000     0.00
elaps:  IterMD            1    4063.089    4063.089    99.97
elaps:  hsparse           1       0.050       0.050     0.00
elaps:  overlap           1       0.978       0.978     0.02
elaps:  IterSCF           4    1009.942    4039.767    99.39
elaps:  kinefsm           2       0.503       1.005     0.02
elaps:  nlefsm            2       2.466       4.931     0.12
elaps:  DHSCF             5      15.173      75.866     1.87
elaps:  DHSCF1            1       0.136       0.136     0.00
elaps:  DHSCF2            1       5.334       5.334     0.13
elaps:  REORD            42       0.002       0.077     0.00
elaps:  POISON            6       0.487       2.922     0.07
elaps:  DHSCF3            5      12.507      62.537     1.54
elaps:  rhoofd            5       3.958      19.788     0.49
elaps:  cellXC            5       0.447       2.235     0.05
elaps:  vmat              5       6.480      32.400     0.80
elaps:  MolMec            2       0.000       0.000     0.00
elaps:  diagon            4     994.725    3978.899    97.89
elaps:  c-eigval       1408       0.911    1282.008    31.54
elaps:  c-buildHS      1408       0.029      40.142     0.99
elaps:  cdiag          2816       0.914    2574.523    63.34
elaps:  cdiag1         2816       0.058     163.035     4.01
elaps:  cdiag2         2816       0.249     700.492    17.23
elaps:  cdiag3         2816       0.524    1476.506    36.33
elaps:  cdiag4         2816       0.033      92.327     2.27
elaps:  c-eigvec       1408       0.959    1350.040    33.22
elaps:  c-buildD       1408       0.955    1344.694    33.08
elaps:  DHSCF4            1       7.793       7.793     0.19
elaps:  dfscf             1       7.305       7.305     0.18
elaps:  overfsm           1       0.055       0.055     0.00
elaps:  optical           1       0.000       0.000     0.00
  
>> End of run:  26-NOV-2015   0:34:48
