Siesta Version:                                        siesta-3.2-pl-3
Architecture  : x86_64-unknown-linux-gnu--unknown
Compiler flags: mpiifort -g -O2 -fPIC -xSSE4.1 -fp-model source -shared-intel 
PARALLEL version

* Running on    8 nodes in parallel
>> Start of run:   6-DEC-2015   7:06:20

                           ***********************       
                           *  WELCOME TO SIESTA  *       
                           ***********************       

reinit: Reading from standard input
************************** Dump of input data file ****************************
#(1) General system descriptors
SystemName            GRP_doping    # Descriptive name of the system
SystemLabel           GRP_doping    # Short name for naming files
%include STRUCT.fdf
%include KPT.fdf
%include BASIS.fdf
#%include TS.fdf # for transiesta calculation
#(4) DFT, Grid, SCF
XC.functional         GGA           # LDA or GGA (default = LDA)
XC.authors            PBE           # CA (Ceperley-Aldr) = PZ
                                    #    (Perdew-Zunger) - LDA - Default
                                    # PW92 (Perdew-Wang-92) - LDA
                                    # PBE (Perdew-Burke-Ernzerhof) - GGA
MeshCutoff            200.000000    Ry      # Default: 50.0 Ry ~ 0.444 Bohr
                                    #         100.0 Ry ~ 0.314 Bohr
MaxSCFIterations      500           # Default: 50
DM.MixingWeight       0.05          # Default: 0.25
DM.NumberPulay        10            # Default: 0
DM.PulayOnFile        F             # SystemLabel.P1, SystemLabel.P2
DM.Tolerance          1.d-4         # Default: 1.d-4
DM.UseSaveDM          .true.        # because of the bug
SCFMustConverge       .true.
NeglNonOverlapInt     F             # Default: F
#(5) Eigenvalue problem: order-N or diagonalization
SolutionMethod        Diagon        # or Transiesta
ElectronicTemperature 300.0 K       # Default: 300.0 K
#(6) Molecular dynamics and relaxations
#MD.TypeOfRun          CG            # Type of dynamics:
#MD.VariableCell       F
#MD.NumCGsteps         0           # 0 for single-point / 100 for gopt
#MD.MaxCGDispl         0.2 Bohr      # Default: 0.2 Bohr
#MD.MaxForceTol        0.02 eV/Ang   # Default: 0.04 eV/Ang
#MD.MaxStressTol       1.0 GPa       # Default: 1.0 GPa
# Geometry Constraints
#%block GeometryConstraints
#	position from 1 to 44
#%endblock GeometryConstraints
************************** End of input data file *****************************

reinit: -----------------------------------------------------------------------
reinit: System Name: GRP_doping
reinit: -----------------------------------------------------------------------
reinit: System Label: GRP_doping                                                  
reinit: -----------------------------------------------------------------------

initatom: Reading input for the pseudopotentials and atomic orbitals ----------
 Species number:            1  Label: N Atomic number:           7
 Species number:            2  Label: C Atomic number:           6
Ground state valence configuration:   2s02  2p03
Reading pseudopotential information in formatted form from N.psf

Valence configuration for pseudopotential generation:
2s( 2.00) rc: 1.48
2p( 3.00) rc: 1.48
3d( 0.00) rc: 1.48
4f( 0.00) rc: 1.48
Ground state valence configuration:   2s02  2p02
Reading pseudopotential information in formatted form from C.psf

Valence configuration for pseudopotential generation:
2s( 2.00) rc: 1.54
2p( 2.00) rc: 1.54
3d( 0.00) rc: 1.54
4f( 0.00) rc: 1.54
For N, standard SIESTA heuristics set lmxkb to 3
 (one more than the basis l, including polarization orbitals).
Use PS.lmax or PS.KBprojectors blocks to override.
For C, standard SIESTA heuristics set lmxkb to 3
 (one more than the basis l, including polarization orbitals).
Use PS.lmax or PS.KBprojectors blocks to override.

<basis_specs>
===============================================================================
N                    Z=   7    Mass=  14.010        Charge= 0.17977+309
Lmxo=1 Lmxkb= 3    BasisType=split      Semic=F
L=0  Nsemic=0  Cnfigmx=2
          n=1  nzeta=2  polorb=0
            splnorm:   0.15000    
               vcte:    0.0000    
               rinn:    0.0000    
                rcs:    0.0000      0.0000    
            lambdas:    1.0000      1.0000    
L=1  Nsemic=0  Cnfigmx=2
          n=1  nzeta=2  polorb=1
            splnorm:   0.15000    
               vcte:    0.0000    
               rinn:    0.0000    
                rcs:    0.0000      0.0000    
            lambdas:    1.0000      1.0000    
-------------------------------------------------------------------------------
L=0  Nkbl=1  erefs: 0.17977+309
L=1  Nkbl=1  erefs: 0.17977+309
L=2  Nkbl=1  erefs: 0.17977+309
L=3  Nkbl=1  erefs: 0.17977+309
===============================================================================
</basis_specs>

atom: Called for N                     (Z =   7)

read_vps: Pseudopotential generation method:
read_vps: ATM3      Troullier-Martins                       
Total valence charge:    5.00000

read_vps: Pseudopotential includes a core correction:
read_vps: Pseudo-core for xc-correction

xc_check: Exchange-correlation functional:
xc_check: GGA Perdew, Burke & Ernzerhof 1996
V l=0 = -2*Zval/r beyond r=  1.4606
V l=1 = -2*Zval/r beyond r=  1.4606
V l=2 = -2*Zval/r beyond r=  1.4606
V l=3 = -2*Zval/r beyond r=  1.4606
All V_l potentials equal beyond r=  1.4606
This should be close to max(r_c) in ps generation
All pots = -2*Zval/r beyond r=  1.4606

VLOCAL1: 99.0% of the norm of Vloc inside     20.347 Ry
VLOCAL1: 99.9% of the norm of Vloc inside     46.372 Ry
atom: Maximum radius for 4*pi*r*r*local-pseudopot. charge    1.76189
atom: Maximum radius for r*vlocal+2*Zval:    1.53550
GHOST: No ghost state for L =  0
GHOST: No ghost state for L =  1
GHOST: No ghost state for L =  2
GHOST: No ghost state for L =  3

KBgen: Kleinman-Bylander projectors: 
   l= 0   rc=  1.634559   el= -1.363963   Ekb=  5.296955   kbcos=  0.335621
   l= 1   rc=  1.614250   el= -0.521451   Ekb= -5.259161   kbcos= -0.433408
   l= 2   rc=  1.718383   el=  0.001991   Ekb= -1.271464   kbcos= -0.007566
   l= 3   rc=  1.761893   el=  0.003093   Ekb= -0.494769   kbcos= -0.001015

KBgen: Total number of  Kleinman-Bylander projectors:   16
atom: -------------------------------------------------------------------------

atom: SANKEY-TYPE ORBITALS:
atom: Selected multiple-zeta basis: split     

SPLIT: Orbitals with angular momentum L= 0

SPLIT: Basis orbitals for state 2s

SPLIT: PAO cut-off radius determined from an
SPLIT: energy shift=  0.007350 Ry

   izeta = 1
                 lambda =    1.000000
                     rc =    4.071465
                 energy =   -1.356470
                kinetic =    1.176977
    potential(screened) =   -2.533447
       potential(ionic) =   -8.057990

   izeta = 2
                 rmatch =    2.905100
              splitnorm =    0.150000
                 energy =   -1.158343
                kinetic =    1.813009
    potential(screened) =   -2.971352
       potential(ionic) =   -8.901931

SPLIT: Orbitals with angular momentum L= 1

SPLIT: Basis orbitals for state 2p

SPLIT: PAO cut-off radius determined from an
SPLIT: energy shift=  0.007350 Ry

   izeta = 1
                 lambda =    1.000000
                     rc =    4.972977
                 energy =   -0.513884
                kinetic =    3.441732
    potential(screened) =   -3.955616
       potential(ionic) =   -9.287901

   izeta = 2
                 rmatch =    3.054066
              splitnorm =    0.150000
                 energy =   -0.318226
                kinetic =    5.125348
    potential(screened) =   -5.443573
       potential(ionic) =  -11.380999

POLgen: Perturbative polarization orbital with L=  2

POLgen: Polarization orbital for state 2p

   izeta = 1
                     rc =    4.972977
                 energy =    1.607437
                kinetic =    3.268125
    potential(screened) =   -1.660688
       potential(ionic) =   -5.973652
atom: Total number of Sankey-type orbitals: 13

atm_pop: Valence configuration (for local Pseudopot. screening):
 2s( 2.00)                                                            
 2p( 3.00)                                                            
Vna: chval, zval:    5.00000   5.00000

Vna:  Cut-off radius for the neutral-atom potential:   4.972977
comcore: Pseudo-core radius Rcore=  1.554824

atom: _________________________________________________________________________

<basis_specs>
===============================================================================
C                    Z=   6    Mass=  12.010        Charge= 0.17977+309
Lmxo=1 Lmxkb= 3    BasisType=split      Semic=F
L=0  Nsemic=0  Cnfigmx=2
          n=1  nzeta=2  polorb=0
            splnorm:   0.15000    
               vcte:    0.0000    
               rinn:    0.0000    
                rcs:    0.0000      0.0000    
            lambdas:    1.0000      1.0000    
L=1  Nsemic=0  Cnfigmx=2
          n=1  nzeta=2  polorb=1
            splnorm:   0.15000    
               vcte:    0.0000    
               rinn:    0.0000    
                rcs:    0.0000      0.0000    
            lambdas:    1.0000      1.0000    
-------------------------------------------------------------------------------
L=0  Nkbl=1  erefs: 0.17977+309
L=1  Nkbl=1  erefs: 0.17977+309
L=2  Nkbl=1  erefs: 0.17977+309
L=3  Nkbl=1  erefs: 0.17977+309
===============================================================================
</basis_specs>

atom: Called for C                     (Z =   6)

read_vps: Pseudopotential generation method:
read_vps: ATM3      Troullier-Martins                       
Total valence charge:    4.00000

read_vps: Pseudopotential includes a core correction:
read_vps: Pseudo-core for xc-correction

xc_check: Exchange-correlation functional:
xc_check: GGA Perdew, Burke & Ernzerhof 1996
V l=0 = -2*Zval/r beyond r=  1.5227
V l=1 = -2*Zval/r beyond r=  1.5227
V l=2 = -2*Zval/r beyond r=  1.5227
V l=3 = -2*Zval/r beyond r=  1.5038
All V_l potentials equal beyond r=  1.5227
This should be close to max(r_c) in ps generation
All pots = -2*Zval/r beyond r=  1.5227

VLOCAL1: 99.0% of the norm of Vloc inside     18.722 Ry
VLOCAL1: 99.9% of the norm of Vloc inside     42.668 Ry
atom: Maximum radius for 4*pi*r*r*local-pseudopot. charge    1.83678
atom: Maximum radius for r*vlocal+2*Zval:    1.58088
GHOST: No ghost state for L =  0
GHOST: No ghost state for L =  1
GHOST: No ghost state for L =  2
GHOST: No ghost state for L =  3

KBgen: Kleinman-Bylander projectors: 
   l= 0   rc=  1.704034   el= -1.009801   Ekb=  5.335044   kbcos=  0.316824
   l= 1   rc=  1.704034   el= -0.388707   Ekb= -3.785862   kbcos= -0.366464
   l= 2   rc=  1.791422   el=  0.001971   Ekb= -0.970471   kbcos= -0.009212
   l= 3   rc=  1.859892   el=  0.003065   Ekb= -0.399525   kbcos= -0.001223

KBgen: Total number of  Kleinman-Bylander projectors:   16
atom: -------------------------------------------------------------------------

atom: SANKEY-TYPE ORBITALS:
atom: Selected multiple-zeta basis: split     

SPLIT: Orbitals with angular momentum L= 0

SPLIT: Basis orbitals for state 2s

SPLIT: PAO cut-off radius determined from an
SPLIT: energy shift=  0.007350 Ry

   izeta = 1
                 lambda =    1.000000
                     rc =    4.632753
                 energy =   -1.002270
                kinetic =    0.855760
    potential(screened) =   -1.858031
       potential(ionic) =   -5.417575

   izeta = 2
                 rmatch =    3.431921
              splitnorm =    0.150000
                 energy =   -0.867111
                kinetic =    1.300804
    potential(screened) =   -2.167915
       potential(ionic) =   -5.962684

SPLIT: Orbitals with angular momentum L= 1

SPLIT: Basis orbitals for state 2p

SPLIT: PAO cut-off radius determined from an
SPLIT: energy shift=  0.007350 Ry

   izeta = 1
                 lambda =    1.000000
                     rc =    5.658549
                 energy =   -0.381140
                kinetic =    2.399701
    potential(screened) =   -2.780841
       potential(ionic) =   -6.206085

   izeta = 2
                 rmatch =    3.653288
              splitnorm =    0.150000
                 energy =   -0.249149
                kinetic =    3.542762
    potential(screened) =   -3.791911
       potential(ionic) =   -7.581078

POLgen: Perturbative polarization orbital with L=  2

POLgen: Polarization orbital for state 2p

   izeta = 1
                     rc =    5.658549
                 energy =    1.109913
                kinetic =    2.304789
    potential(screened) =   -1.194876
       potential(ionic) =   -4.013592
atom: Total number of Sankey-type orbitals: 13

atm_pop: Valence configuration (for local Pseudopot. screening):
 2s( 2.00)                                                            
 2p( 2.00)                                                            
Vna: chval, zval:    4.00000   4.00000

Vna:  Cut-off radius for the neutral-atom potential:   5.658549
comcore: Pseudo-core radius Rcore=  1.791422

atom: _________________________________________________________________________

prinput: Basis input ----------------------------------------------------------

PAO.BasisType split     

%block ChemicalSpeciesLabel
    1    7 N                       # Species index, atomic number, species label
    2    6 C                       # Species index, atomic number, species label
%endblock ChemicalSpeciesLabel

%block PAO.Basis                 # Define Basis set
N                     2                    # Species label, number of l-shells
 n=2   0   2                         # n, l, Nzeta 
   4.071      2.905   
   1.000      1.000   
 n=2   1   2 P   1                   # n, l, Nzeta, Polarization, NzetaPol
   4.973      3.054   
   1.000      1.000   
C                     2                    # Species label, number of l-shells
 n=2   0   2                         # n, l, Nzeta 
   4.633      3.432   
   1.000      1.000   
 n=2   1   2 P   1                   # n, l, Nzeta, Polarization, NzetaPol
   5.659      3.653   
   1.000      1.000   
%endblock PAO.Basis

prinput: ----------------------------------------------------------------------

coor:   Atomic-coordinates input format  =     Cartesian coordinates
coor:                                          (in Angstroms)

siesta: Atomic coordinates (Bohr) and species
siesta:      2.23554   1.32097   0.00000  1        1
siesta:     32.50328  21.48508   0.00000  1        2
siesta:     11.54782   1.32097   0.00000  1        3
siesta:     20.86199   1.32097   0.00000  1        4
siesta:      4.56380   5.35379   0.00000  1        5
siesta:     13.87608   5.35379   0.00000  1        6
siesta:     23.19025   5.35379   0.00000  1        7
siesta:      6.89205   9.38661   0.00000  1        8
siesta:     16.20434   9.38661   0.00000  1        9
siesta:      9.22031  13.41944   0.00000  1       10
siesta:     18.53448  13.41944   0.00000  1       11
siesta:     11.54857  17.45226   0.00000  1       12
siesta:     13.87683  21.48508   0.00000  1       13
siesta:     25.51851   9.38661   0.00000  1       14
siesta:     20.86274  17.45226   0.00000  1       15
siesta:     27.84677  13.41944   0.00000  1       16
siesta:     23.19100  21.48508   0.00000  1       17
siesta:     30.17503  17.45226   0.00000  1       18
siesta:      4.56367   2.66461   0.00000  2       19
siesta:     34.83141  22.82873   0.00000  2       20
siesta:     34.83116  17.45226   0.00000  2       21
siesta:     37.15930  18.79590   0.00000  2       22
siesta:     32.50291  13.41944   0.00000  2       23
siesta:     34.83104  14.76308   0.00000  2       24
siesta:     30.17465   9.38661   0.00000  2       25
siesta:     32.50278  10.73026   0.00000  2       26
siesta:     27.84639   5.35379   0.00000  2       27
siesta:     30.17453   6.69743   0.00000  2       28
siesta:     27.84714  21.48508   0.00000  2       29
siesta:     30.17527  22.82873   0.00000  2       30
siesta:      6.89168   1.32097   0.00000  2       31
siesta:      9.21981   2.66461   0.00000  2       32
siesta:     13.87595   2.66461   0.00000  2       33
siesta:     16.20396   1.32097   0.00000  2       34
siesta:     18.53210   2.66461   0.00000  2       35
siesta:     23.19013   2.66461   0.00000  2       36
siesta:     25.51813   1.32097   0.00000  2       37
siesta:     27.84627   2.66461   0.00000  2       38
siesta:      6.89193   6.69743   0.00000  2       39
siesta:      9.21994   5.35379   0.00000  2       40
siesta:     11.54807   6.69743   0.00000  2       41
siesta:     16.20421   6.69743   0.00000  2       42
siesta:     18.53411   5.35379   0.00000  2       43
siesta:     20.86224   6.69743   0.00000  2       44
siesta:     25.51838   6.69743   0.00000  2       45
siesta:      9.22019  10.73026   0.00000  2       46
siesta:     11.54820   9.38661   0.00000  2       47
siesta:     13.87633  10.73026   0.00000  2       48
siesta:     18.53247  10.73026   0.00000  2       49
siesta:     20.86237   9.38661   0.00000  2       50
siesta:     23.19050  10.73026   0.00000  2       51
siesta:     11.54845  14.76308   0.00000  2       52
siesta:     13.87645  13.41944   0.00000  2       53
siesta:     16.20459  14.76308   0.00000  2       54
siesta:     20.86262  14.76308   0.00000  2       55
siesta:     13.87670  18.79590   0.00000  2       56
siesta:     16.20471  17.45226   0.00000  2       57
siesta:     18.53284  18.79590   0.00000  2       58
siesta:     16.20496  22.82873   0.00000  2       59
siesta:     18.53486  21.48508   0.00000  2       60
siesta:     20.86299  22.82873   0.00000  2       61
siesta:     27.84664  10.73026   0.00000  2       62
siesta:     23.19063  13.41944   0.00000  2       63
siesta:     25.51876  14.76308   0.00000  2       64
siesta:     23.19088  18.79590   0.00000  2       65
siesta:     30.17490  14.76308   0.00000  2       66
siesta:     25.51888  17.45226   0.00000  2       67
siesta:     27.84702  18.79590   0.00000  2       68
siesta:     25.51913  22.82873   0.00000  2       69
siesta:     32.50316  18.79590   0.00000  2       70
siesta:     37.16131  21.48508   0.00000  2       71
siesta:     39.48945  22.82873   0.00000  2       72

siesta: System type = slab      

initatomlists: Number of atoms, orbitals, and projectors:     72   936  1152

siesta: ******************** Simulation parameters ****************************
siesta:
siesta: The following are some of the parameters of the simulation.
siesta: A complete list of the parameters used, including default values,
siesta: can be found in file out.fdf
siesta:
redata: Non-Collinear-spin run           =     F
redata: SpinPolarized (Up/Down) run      =     F
redata: Number of spin components        =     1
redata: Long output                      =     F
redata: Number of Atomic Species         =        2
redata: Charge density info will appear in .RHO file
redata: Write Mulliken Pop.              =     NO
redata: Mesh Cutoff                      =   200.0000  Ry
redata: Net charge of the system         =     0.0000 |e|
redata: Max. number of SCF Iter          =      500
redata: SCF convergence failure will abort job
redata: Performing Pulay mixing using    =    10 iterations
redata: Mix DM in first SCF step ?       =     F
redata: Write Pulay info on disk?        =     F
redata: Discard 1st Pulay DM after  kick =     F
redata: New DM Mixing Weight             =     0.0500
redata: New DM Occupancy tolerance       = 0.000000000001
redata: No kicks to SCF
redata: DM Mixing Weight for Kicks       =     0.5000
redata: DM Tolerance for SCF             =     0.000100
redata: Require Energy convergence for SCF =     F
redata: DM Energy tolerance for SCF      =     0.000100 eV
redata: Require Harris convergence for SCF =     F
redata: DM Harris energy tolerance for SCF =     0.000100 eV
redata: Using Saved Data (generic)   =     F
redata: Use continuation files for DM    =     T
redata: Neglect nonoverlap interactions  =     F
redata: Method of Calculation            =     Diagonalization
redata: Divide and Conquer               =     T
redata: Electronic Temperature           =     0.0019  Ry
redata: Fix the spin of the system       =     F
redata: Dynamics option                  =     Verlet MD run
redata: Initial MD time step             =        1
redata:   Final MD time step             =        1
redata: Length of MD time step           =     1.0000  fs
redata: Initial Temperature of MD run    =     0.0000  K
redata: Perform a MD quench              =     F
redata: ***********************************************************************
Total number of electrons:   306.000000
Total ionic charge:   306.000000

* ProcessorY, Blocksize:    2  24

k-point displ. along   1 input, could be:     0.00    0.50
k-point displ. along   2 input, could be:     0.00    0.50
 Kpoints in:          364 . Kpoints trimmed:          352

siesta: k-grid: Number of k-points =   352
siesta: k-grid: Cutoff (effective) =     5.000 Ang
siesta: k-grid: Supercell and displacements
siesta: k-grid:   26   0   0      0.000
siesta: k-grid:    0  26   0      0.000
siesta: k-grid:    0   0   1      0.000
Naive supercell factors:     2    2    2

superc: Internal auxiliary supercell:     2 x     2 x     2  =       8
superc: Number of atoms, orbitals, and projectors:    576   7488   9216

* Maximum dynamic memory allocated =     6 MB

siesta:                 ==============================
                            Begin MD step =      1
                        ==============================

superc: Internal auxiliary supercell:     2 x     2 x     2  =       8
superc: Number of atoms, orbitals, and projectors:    576   7488   9216

outcell: Unit cell vectors (Ang):
       14.785000    0.000000    0.000000
        7.393000   12.805052    0.000000
        0.000000    0.000000   10.000000

outcell: Cell vector modules (Ang)   :   14.785000   14.786000   10.000000
outcell: Cell angles (23,13,12) (deg):     90.0000     90.0000     60.0000
outcell: Cell volume (Ang**3)        :   1893.2269
New_DM. Step:     1
Initializing Density Matrix...

iodm: Reading Density Matrix from files
 Read DM has different structure. Fixing...

InitMesh: MESH =   120 x   120 x    90 =     1296000
InitMesh: Mesh cutoff (required, used) =   200.000   223.865 Ry

* Maximum dynamic memory allocated =   181 MB

stepf: Fermi-Dirac step function

siesta: Program's energy decomposition (eV):
siesta: Ebs     =     -4173.568643
siesta: Eions   =     21296.454266
siesta: Ena     =      4152.143153
siesta: Ekin    =      9124.229302
siesta: Enl     =     -1193.480470
siesta: DEna    =      -325.239173
siesta: DUscf   =       213.138083
siesta: DUext   =         0.000000
siesta: Exc     =     -4516.786532
siesta: eta*DQ  =         0.000000
siesta: Emadel  =         0.000000
siesta: Emeta   =         0.000000
siesta: Emolmec =         0.000000
siesta: Ekinion =         0.000000
siesta: Eharris =    -14138.696450
siesta: Etot    =    -13842.449903
siesta: FreeEng =    -13842.449903

siesta: iscf   Eharris(eV)      E_KS(eV)   FreeEng(eV)   dDmax  Ef(eV)
siesta:    1   -14138.6965   -13842.4499   -13842.4499  1.1795 -1.8145
timer: Routine,Calls,Time,% = IterSCF        1   10756.097  99.83
elaps: Routine,Calls,Wall,% = IterSCF        1    1435.062  99.83
siesta:    2   -15516.4801   -13040.7758   -13040.8691  1.4087 -3.0205
siesta:    3   -13810.1897   -13773.5427   -13773.5654  0.4853 -2.1299
siesta:    4   -13810.2342   -13767.5890   -13767.6078  0.4647 -2.2047
siesta:    5   -13793.9964   -13737.5431   -13737.5617  0.1694 -3.2981
siesta:    6   -13794.6366   -13739.8133   -13739.8410  0.1651 -3.4825
siesta:    7   -13790.2701   -13757.4953   -13757.5267  0.0930 -3.4985
siesta:    8   -13790.2113   -13768.9379   -13768.9676  0.0906 -3.4583
siesta:    9   -13789.8261   -13772.8172   -13772.8456  0.0657 -3.4137
siesta:   10   -13789.1750   -13785.1421   -13785.1705  0.0285 -3.2588
siesta:   11   -13789.1145   -13787.8621   -13787.8898  0.0087 -3.2233
siesta:   12   -13789.1057   -13788.0491   -13788.0768  0.0065 -3.2228
siesta:   13   -13789.0948   -13788.6199   -13788.6476  0.0060 -3.2276
siesta:   14   -13789.0948   -13788.6817   -13788.7093  0.0039 -3.2294
siesta:   15   -13789.0952   -13788.9305   -13788.9581  0.0033 -3.2303
siesta:   16   -13789.0934   -13788.9462   -13788.9739  0.0024 -3.2315
siesta:   17   -13789.0932   -13788.9482   -13788.9759  0.0014 -3.2314
siesta:   18   -13789.0930   -13789.0518   -13789.0795  0.0007 -3.2311
siesta:   19   -13789.0930   -13789.0166   -13789.0443  0.0002 -3.2319
siesta:   20   -13789.0929   -13789.0184   -13789.0460  0.0002 -3.2319
siesta:   21   -13789.0929   -13789.0628   -13789.0904  0.0001 -3.2318

siesta: E_KS(eV) =           -13789.0674

siesta: E_KS - E_eggbox =    -13789.0674

siesta: Atomic forces (eV/Ang):
----------------------------------------
   Tot    0.062430   -0.339948    0.000000
----------------------------------------
   Max    0.345182
   Res    0.136609    sqrt( Sum f_i^2 / 3N )
----------------------------------------
   Max    0.345182    constrained

Stress-tensor-Voigt (kbar):       36.12       39.43        0.27        2.31        0.00        0.00
(Free)E + p*V (eV/cell)   -13818.9565
Target enthalpy (eV/cell)   -13789.0950

siesta: Stress tensor (static) (eV/Ang**3):
         0.022546    0.001443    0.000000
         0.001443    0.024607    0.000000
         0.000000    0.000000    0.000166

siesta: Pressure (static):        -25.27107619  kBar

siesta: Stress tensor (total) (eV/Ang**3):
         0.022546    0.001443    0.000000
         0.001443    0.024607    0.000000
         0.000000    0.000000    0.000166

siesta: Pressure (total):        -25.27107619  kBar

siesta: Temp_ion =       0.000 K

* Maximum dynamic memory allocated =   196 MB

siesta: Program's energy decomposition (eV):
siesta: Ebs     =     -4435.151771
siesta: Eions   =     21296.454266
siesta: Ena     =      4152.143153
siesta: Ekin    =      9332.929394
siesta: Enl     =     -1328.583525
siesta: DEna    =      -208.026409
siesta: DUscf   =        20.594222
siesta: DUext   =         0.000000
siesta: Exc     =     -4461.669961
siesta: eta*DQ  =         0.000000
siesta: Emadel  =         0.000000
siesta: Emeta   =         0.000000
siesta: Emolmec =         0.000000
siesta: Ekinion =         0.000000
siesta: Eharris =    -13789.092937
siesta: Etot    =    -13789.067392
siesta: FreeEng =    -13789.095045

siesta: Final energy (eV):
siesta:  Band Struct. =   -4435.151771
siesta:       Kinetic =    9332.929394
siesta:       Hartree =   26510.125990
siesta:    Ext. field =       0.000000
siesta:   Exch.-corr. =   -4461.669961
siesta:  Ion-electron =  -61754.059888
siesta:       Ion-ion =   16583.607073
siesta:       Ekinion =       0.000000
siesta:         Total =  -13789.067392

siesta: Atomic forces (eV/Ang):
siesta:      1   -0.330923    0.151222    0.000000
siesta:      2   -0.307702    0.171919    0.000000
siesta:      3   -0.309603    0.149263    0.000000
siesta:      4   -0.343080    0.149588    0.000000
siesta:      5   -0.323902    0.166834    0.000000
siesta:      6   -0.306762    0.164813    0.000000
siesta:      7   -0.311575    0.161536    0.000000
siesta:      8   -0.324208    0.167582    0.000000
siesta:      9   -0.306523    0.166240    0.000000
siesta:     10   -0.322453    0.168507    0.000000
siesta:     11   -0.345182    0.171611    0.000000
siesta:     12   -0.322356    0.162587    0.000000
siesta:     13   -0.293698    0.166764    0.000000
siesta:     14   -0.312182    0.162898    0.000000
siesta:     15   -0.335485    0.165822    0.000000
siesta:     16   -0.312412    0.165095    0.000000
siesta:     17   -0.311901    0.166865    0.000000
siesta:     18   -0.313060    0.165967    0.000000
siesta:     19   -0.037839    0.015865    0.000000
siesta:     20   -0.001060    0.030074    0.000000
siesta:     21    0.243858   -0.140519    0.000000
siesta:     22    0.129129   -0.061756    0.000000
siesta:     23    0.243344   -0.144216    0.000000
siesta:     24    0.120865   -0.065703    0.000000
siesta:     25    0.243538   -0.144036    0.000000
siesta:     26    0.120520   -0.065649    0.000000
siesta:     27    0.243805   -0.143672    0.000000
siesta:     28    0.120044   -0.065777    0.000000
siesta:     29    0.242195   -0.137915    0.000000
siesta:     30    0.107459   -0.042870    0.000000
siesta:     31    0.245147   -0.160600    0.000000
siesta:     32    0.108990   -0.067163    0.000000
siesta:     33   -0.035224    0.017681    0.000000
siesta:     34    0.248719   -0.160512    0.000000
siesta:     35    0.141398   -0.065625    0.000000
siesta:     36   -0.040414    0.016260    0.000000
siesta:     37    0.247263   -0.160545    0.000000
siesta:     38    0.119345   -0.066229    0.000000
siesta:     39   -0.037054    0.021893    0.000000
siesta:     40    0.241254   -0.141872    0.000000
siesta:     41    0.109423   -0.062522    0.000000
siesta:     42   -0.007297    0.013617    0.000000
siesta:     43    0.205844   -0.134327    0.000000
siesta:     44    0.105042   -0.063531    0.000000
siesta:     45   -0.036248    0.021939    0.000000
siesta:     46   -0.036813    0.022176    0.000000
siesta:     47    0.241335   -0.142680    0.000000
siesta:     48    0.108384   -0.060917    0.000000
siesta:     49    0.003482    0.010584    0.000000
siesta:     50    0.213671   -0.134179    0.000000
siesta:     51    0.103753   -0.062513    0.000000
siesta:     52   -0.038154    0.024799    0.000000
siesta:     53    0.247164   -0.145953    0.000000
siesta:     54    0.132548   -0.065096    0.000000
siesta:     55   -0.040919    0.022137    0.000000
siesta:     56   -0.037671    0.023207    0.000000
siesta:     57    0.247331   -0.142753    0.000000
siesta:     58    0.140752   -0.065276    0.000000
siesta:     59    0.000546    0.028402    0.000000
siesta:     60    0.206254   -0.132829    0.000000
siesta:     61    0.101799   -0.046158    0.000000
siesta:     62   -0.035358    0.021912    0.000000
siesta:     63    0.243043   -0.142693    0.000000
siesta:     64    0.108740   -0.062854    0.000000
siesta:     65   -0.040217    0.023466    0.000000
siesta:     66   -0.034883    0.021734    0.000000
siesta:     67    0.241933   -0.142010    0.000000
siesta:     68    0.110025   -0.063294    0.000000
siesta:     69   -0.040133    0.036194    0.000000
siesta:     70   -0.035183    0.021153    0.000000
siesta:     71    0.203351   -0.131819    0.000000
siesta:     72    0.088611   -0.042091    0.000000
siesta: ----------------------------------------
siesta:    Tot    0.062430   -0.339948    0.000000

siesta: Stress tensor (static) (eV/Ang**3):
siesta:     0.022546    0.001443    0.000000
siesta:     0.001443    0.024607    0.000000
siesta:     0.000000    0.000000    0.000166

siesta: Cell volume =       1893.226895 Ang**3

siesta: Pressure (static):
siesta:                Solid            Molecule  Units
siesta:          -0.00017179         -0.00020708  Ry/Bohr**3
siesta:          -0.01577279         -0.01901314  eV/Ang**3
siesta:         -25.27107619        -30.46274048  kBar
(Free)E+ p_basis*V_orbitals  =      -13760.930771
(Free)Eharris+ p_basis*V_orbitals  =      -13760.960919

siesta: Electric dipole (a.u.)  =    0.000000    0.000000    0.000000
siesta: Electric dipole (Debye) =    0.000000    0.000000    0.000000

* Maximum dynamic memory allocated : Node    0 =   196 MB
* Maximum dynamic memory allocated : Node    1 =    72 MB
* Maximum dynamic memory allocated : Node    2 =    75 MB
* Maximum dynamic memory allocated : Node    3 =   186 MB
* Maximum dynamic memory allocated : Node    4 =   196 MB
* Maximum dynamic memory allocated : Node    5 =    72 MB
* Maximum dynamic memory allocated : Node    6 =    74 MB
* Maximum dynamic memory allocated : Node    7 =   181 MB

* Maximum memory occured during matrixMtoO                    

timer: CPU execution times:
timer:  Routine       Calls   Time/call    Tot.time        %
timer:  siesta            1  222550.318  222550.318   100.00
timer:  Setup             1       2.896       2.896     0.00
timer:  bands             1       0.009       0.009     0.00
timer:  writewave         1       0.024       0.024     0.00
timer:  KSV_init          1       0.001       0.001     0.00
timer:  IterMD            1  222538.892  222538.892    99.99
timer:  hsparse           1       0.254       0.254     0.00
timer:  overlap           1       7.725       7.725     0.00
timer:  IterSCF          21   10589.323  222375.790    99.92
timer:  kinefsm           2       3.957       7.913     0.00
timer:  nlefsm            2      18.386      36.773     0.02
timer:  DHSCF            22      85.454    1879.992     0.84
timer:  DHSCF1            1       0.773       0.773     0.00
timer:  DHSCF2            1      35.282      35.282     0.02
timer:  REORD           178       0.010       1.694     0.00
timer:  POISON           23       2.418      55.612     0.02
timer:  DHSCF3           22      82.403    1812.868     0.81
timer:  rhoofd           22      15.865     349.034     0.16
timer:  cellXC           22       4.122      90.679     0.04
timer:  vmat             22      39.121     860.665     0.39
timer:  MolMec            2       0.000       0.000     0.00
timer:  diagon           21   10501.444  220530.317    99.09
timer:  c-eigval       7392      12.083   89320.005    40.13
timer:  c-buildHS      7392       0.082     609.379     0.27
timer:  cdiag         14784      12.475  184425.503    82.87
timer:  cdiag1        14784       0.811   11983.758     5.38
timer:  cdiag2        14784       3.516   51978.739    23.36
timer:  cdiag3        14784       7.331  108377.865    48.70
timer:  cdiag4        14784       0.337    4980.461     2.24
timer:  c-eigvec       7392      13.013   96192.967    43.22
timer:  c-buildD       7392       4.729   34959.816    15.71
timer:  DHSCF4            1      30.035      30.035     0.01
timer:  dfscf             1      28.205      28.205     0.01
timer:  overfsm           1       0.369       0.369     0.00
timer:  optical           1       7.459       7.459     0.00
  

elaps: ELAPSED times:
elaps:  Routine       Calls   Time/call    Tot.time        %
elaps:  siesta            1   29691.186   29691.186   100.00
elaps:  Setup             1       0.384       0.384     0.00
elaps:  bands             1       0.001       0.001     0.00
elaps:  writewave         1       0.002       0.002     0.00
elaps:  KSV_init          1       0.000       0.000     0.00
elaps:  IterMD            1   29689.662   29689.662    99.99
elaps:  hsparse           1       0.031       0.031     0.00
elaps:  overlap           1       0.961       0.961     0.00
elaps:  IterSCF          21    1412.758   29667.909    99.92
elaps:  kinefsm           2       0.493       0.986     0.00
elaps:  nlefsm            2       2.611       5.221     0.02
elaps:  DHSCF            22      11.557     254.243     0.86
elaps:  DHSCF1            1       0.177       0.177     0.00
elaps:  DHSCF2            1       4.625       4.625     0.02
elaps:  REORD           178       0.001       0.265     0.00
elaps:  POISON           23       0.320       7.359     0.02
elaps:  DHSCF3           22      10.988     241.732     0.81
elaps:  rhoofd           22       3.946      86.817     0.29
elaps:  cellXC           22       0.548      12.050     0.04
elaps:  vmat             22       5.213     114.687     0.39
elaps:  MolMec            2       0.000       0.000     0.00
elaps:  diagon           21    1401.054   29422.141    99.09
elaps:  c-eigval       7392       1.612   11917.774    40.14
elaps:  c-buildHS      7392       0.013      95.829     0.32
elaps:  cdiag         14784       1.656   24483.244    82.46
elaps:  cdiag1        14784       0.106    1571.893     5.29
elaps:  cdiag2        14784       0.469    6935.555    23.36
elaps:  cdiag3        14784       0.981   14499.939    48.84
elaps:  cdiag4        14784       0.045     669.427     2.25
elaps:  c-eigvec       7392       1.725   12747.972    42.94
elaps:  c-buildD       7392       0.642    4747.272    15.99
elaps:  DHSCF4            1       7.537       7.537     0.03
elaps:  dfscf             1       7.120       7.120     0.02
elaps:  overfsm           1       0.046       0.046     0.00
elaps:  optical           1       0.000       0.000     0.00
  
>> End of run:   6-DEC-2015  15:21:11
