Siesta Version:                                        siesta-3.2-pl-3
Architecture  : x86_64-unknown-linux-gnu--unknown
Compiler flags: mpiifort -g -O2 -fPIC -xSSE4.1 -fp-model source -shared-intel 
PARALLEL version

* Running on    8 nodes in parallel
>> Start of run:  29-NOV-2015   7:55:57

                           ***********************       
                           *  WELCOME TO SIESTA  *       
                           ***********************       

reinit: Reading from standard input
************************** Dump of input data file ****************************
#(1) General system descriptors
SystemName            GRP_doping    # Descriptive name of the system
SystemLabel           GRP_doping    # Short name for naming files
%include STRUCT.fdf
%include KPT.fdf
%include BASIS.fdf
#%include TS.fdf # for transiesta calculation
#(4) DFT, Grid, SCF
XC.functional         GGA           # LDA or GGA (default = LDA)
XC.authors            PBE           # CA (Ceperley-Aldr) = PZ
                                    #    (Perdew-Zunger) - LDA - Default
                                    # PW92 (Perdew-Wang-92) - LDA
                                    # PBE (Perdew-Burke-Ernzerhof) - GGA
MeshCutoff            200.000000    Ry      # Default: 50.0 Ry ~ 0.444 Bohr
                                    #         100.0 Ry ~ 0.314 Bohr
MaxSCFIterations      500           # Default: 50
DM.MixingWeight       0.05          # Default: 0.25
DM.NumberPulay        10            # Default: 0
DM.PulayOnFile        F             # SystemLabel.P1, SystemLabel.P2
DM.Tolerance          1.d-4         # Default: 1.d-4
DM.UseSaveDM          .true.        # because of the bug
SCFMustConverge       .true.
NeglNonOverlapInt     F             # Default: F
#(5) Eigenvalue problem: order-N or diagonalization
SolutionMethod        Diagon        # or Transiesta
ElectronicTemperature 300.0 K       # Default: 300.0 K
#(6) Molecular dynamics and relaxations
#MD.TypeOfRun          CG            # Type of dynamics:
#MD.VariableCell       F
#MD.NumCGsteps         0           # 0 for single-point / 100 for gopt
#MD.MaxCGDispl         0.2 Bohr      # Default: 0.2 Bohr
#MD.MaxForceTol        0.02 eV/Ang   # Default: 0.04 eV/Ang
#MD.MaxStressTol       1.0 GPa       # Default: 1.0 GPa
# Geometry Constraints
#%block GeometryConstraints
#	position from 1 to 44
#%endblock GeometryConstraints
************************** End of input data file *****************************

reinit: -----------------------------------------------------------------------
reinit: System Name: GRP_doping
reinit: -----------------------------------------------------------------------
reinit: System Label: GRP_doping                                                  
reinit: -----------------------------------------------------------------------

initatom: Reading input for the pseudopotentials and atomic orbitals ----------
 Species number:            1  Label: C Atomic number:           6
 Species number:            2  Label: N Atomic number:           7
Ground state valence configuration:   2s02  2p02
Reading pseudopotential information in formatted form from C.psf

Valence configuration for pseudopotential generation:
2s( 2.00) rc: 1.54
2p( 2.00) rc: 1.54
3d( 0.00) rc: 1.54
4f( 0.00) rc: 1.54
Ground state valence configuration:   2s02  2p03
Reading pseudopotential information in formatted form from N.psf

Valence configuration for pseudopotential generation:
2s( 2.00) rc: 1.48
2p( 3.00) rc: 1.48
3d( 0.00) rc: 1.48
4f( 0.00) rc: 1.48
For C, standard SIESTA heuristics set lmxkb to 3
 (one more than the basis l, including polarization orbitals).
Use PS.lmax or PS.KBprojectors blocks to override.
For N, standard SIESTA heuristics set lmxkb to 3
 (one more than the basis l, including polarization orbitals).
Use PS.lmax or PS.KBprojectors blocks to override.

<basis_specs>
===============================================================================
C                    Z=   6    Mass=  12.010        Charge= 0.17977+309
Lmxo=1 Lmxkb= 3    BasisType=split      Semic=F
L=0  Nsemic=0  Cnfigmx=2
          n=1  nzeta=2  polorb=0
            splnorm:   0.15000    
               vcte:    0.0000    
               rinn:    0.0000    
                rcs:    0.0000      0.0000    
            lambdas:    1.0000      1.0000    
L=1  Nsemic=0  Cnfigmx=2
          n=1  nzeta=2  polorb=1
            splnorm:   0.15000    
               vcte:    0.0000    
               rinn:    0.0000    
                rcs:    0.0000      0.0000    
            lambdas:    1.0000      1.0000    
-------------------------------------------------------------------------------
L=0  Nkbl=1  erefs: 0.17977+309
L=1  Nkbl=1  erefs: 0.17977+309
L=2  Nkbl=1  erefs: 0.17977+309
L=3  Nkbl=1  erefs: 0.17977+309
===============================================================================
</basis_specs>

atom: Called for C                     (Z =   6)

read_vps: Pseudopotential generation method:
read_vps: ATM3      Troullier-Martins                       
Total valence charge:    4.00000

read_vps: Pseudopotential includes a core correction:
read_vps: Pseudo-core for xc-correction

xc_check: Exchange-correlation functional:
xc_check: GGA Perdew, Burke & Ernzerhof 1996
V l=0 = -2*Zval/r beyond r=  1.5227
V l=1 = -2*Zval/r beyond r=  1.5227
V l=2 = -2*Zval/r beyond r=  1.5227
V l=3 = -2*Zval/r beyond r=  1.5038
All V_l potentials equal beyond r=  1.5227
This should be close to max(r_c) in ps generation
All pots = -2*Zval/r beyond r=  1.5227

VLOCAL1: 99.0% of the norm of Vloc inside     18.722 Ry
VLOCAL1: 99.9% of the norm of Vloc inside     42.668 Ry
atom: Maximum radius for 4*pi*r*r*local-pseudopot. charge    1.83678
atom: Maximum radius for r*vlocal+2*Zval:    1.58088
GHOST: No ghost state for L =  0
GHOST: No ghost state for L =  1
GHOST: No ghost state for L =  2
GHOST: No ghost state for L =  3

KBgen: Kleinman-Bylander projectors: 
   l= 0   rc=  1.704034   el= -1.009801   Ekb=  5.335044   kbcos=  0.316824
   l= 1   rc=  1.704034   el= -0.388707   Ekb= -3.785862   kbcos= -0.366464
   l= 2   rc=  1.791422   el=  0.001971   Ekb= -0.970471   kbcos= -0.009212
   l= 3   rc=  1.859892   el=  0.003065   Ekb= -0.399525   kbcos= -0.001223

KBgen: Total number of  Kleinman-Bylander projectors:   16
atom: -------------------------------------------------------------------------

atom: SANKEY-TYPE ORBITALS:
atom: Selected multiple-zeta basis: split     

SPLIT: Orbitals with angular momentum L= 0

SPLIT: Basis orbitals for state 2s

SPLIT: PAO cut-off radius determined from an
SPLIT: energy shift=  0.007350 Ry

   izeta = 1
                 lambda =    1.000000
                     rc =    4.632753
                 energy =   -1.002270
                kinetic =    0.855760
    potential(screened) =   -1.858031
       potential(ionic) =   -5.417575

   izeta = 2
                 rmatch =    3.431921
              splitnorm =    0.150000
                 energy =   -0.867111
                kinetic =    1.300804
    potential(screened) =   -2.167915
       potential(ionic) =   -5.962684

SPLIT: Orbitals with angular momentum L= 1

SPLIT: Basis orbitals for state 2p

SPLIT: PAO cut-off radius determined from an
SPLIT: energy shift=  0.007350 Ry

   izeta = 1
                 lambda =    1.000000
                     rc =    5.658549
                 energy =   -0.381140
                kinetic =    2.399701
    potential(screened) =   -2.780841
       potential(ionic) =   -6.206085

   izeta = 2
                 rmatch =    3.653288
              splitnorm =    0.150000
                 energy =   -0.249149
                kinetic =    3.542762
    potential(screened) =   -3.791911
       potential(ionic) =   -7.581078

POLgen: Perturbative polarization orbital with L=  2

POLgen: Polarization orbital for state 2p

   izeta = 1
                     rc =    5.658549
                 energy =    1.109913
                kinetic =    2.304789
    potential(screened) =   -1.194876
       potential(ionic) =   -4.013592
atom: Total number of Sankey-type orbitals: 13

atm_pop: Valence configuration (for local Pseudopot. screening):
 2s( 2.00)                                                            
 2p( 2.00)                                                            
Vna: chval, zval:    4.00000   4.00000

Vna:  Cut-off radius for the neutral-atom potential:   5.658549
comcore: Pseudo-core radius Rcore=  1.791422

atom: _________________________________________________________________________

<basis_specs>
===============================================================================
N                    Z=   7    Mass=  14.010        Charge= 0.17977+309
Lmxo=1 Lmxkb= 3    BasisType=split      Semic=F
L=0  Nsemic=0  Cnfigmx=2
          n=1  nzeta=2  polorb=0
            splnorm:   0.15000    
               vcte:    0.0000    
               rinn:    0.0000    
                rcs:    0.0000      0.0000    
            lambdas:    1.0000      1.0000    
L=1  Nsemic=0  Cnfigmx=2
          n=1  nzeta=2  polorb=1
            splnorm:   0.15000    
               vcte:    0.0000    
               rinn:    0.0000    
                rcs:    0.0000      0.0000    
            lambdas:    1.0000      1.0000    
-------------------------------------------------------------------------------
L=0  Nkbl=1  erefs: 0.17977+309
L=1  Nkbl=1  erefs: 0.17977+309
L=2  Nkbl=1  erefs: 0.17977+309
L=3  Nkbl=1  erefs: 0.17977+309
===============================================================================
</basis_specs>

atom: Called for N                     (Z =   7)

read_vps: Pseudopotential generation method:
read_vps: ATM3      Troullier-Martins                       
Total valence charge:    5.00000

read_vps: Pseudopotential includes a core correction:
read_vps: Pseudo-core for xc-correction

xc_check: Exchange-correlation functional:
xc_check: GGA Perdew, Burke & Ernzerhof 1996
V l=0 = -2*Zval/r beyond r=  1.4606
V l=1 = -2*Zval/r beyond r=  1.4606
V l=2 = -2*Zval/r beyond r=  1.4606
V l=3 = -2*Zval/r beyond r=  1.4606
All V_l potentials equal beyond r=  1.4606
This should be close to max(r_c) in ps generation
All pots = -2*Zval/r beyond r=  1.4606

VLOCAL1: 99.0% of the norm of Vloc inside     20.347 Ry
VLOCAL1: 99.9% of the norm of Vloc inside     46.372 Ry
atom: Maximum radius for 4*pi*r*r*local-pseudopot. charge    1.76189
atom: Maximum radius for r*vlocal+2*Zval:    1.53550
GHOST: No ghost state for L =  0
GHOST: No ghost state for L =  1
GHOST: No ghost state for L =  2
GHOST: No ghost state for L =  3

KBgen: Kleinman-Bylander projectors: 
   l= 0   rc=  1.634559   el= -1.363963   Ekb=  5.296955   kbcos=  0.335621
   l= 1   rc=  1.614250   el= -0.521451   Ekb= -5.259161   kbcos= -0.433408
   l= 2   rc=  1.718383   el=  0.001991   Ekb= -1.271464   kbcos= -0.007566
   l= 3   rc=  1.761893   el=  0.003093   Ekb= -0.494769   kbcos= -0.001015

KBgen: Total number of  Kleinman-Bylander projectors:   16
atom: -------------------------------------------------------------------------

atom: SANKEY-TYPE ORBITALS:
atom: Selected multiple-zeta basis: split     

SPLIT: Orbitals with angular momentum L= 0

SPLIT: Basis orbitals for state 2s

SPLIT: PAO cut-off radius determined from an
SPLIT: energy shift=  0.007350 Ry

   izeta = 1
                 lambda =    1.000000
                     rc =    4.071465
                 energy =   -1.356470
                kinetic =    1.176977
    potential(screened) =   -2.533447
       potential(ionic) =   -8.057990

   izeta = 2
                 rmatch =    2.905100
              splitnorm =    0.150000
                 energy =   -1.158343
                kinetic =    1.813009
    potential(screened) =   -2.971352
       potential(ionic) =   -8.901931

SPLIT: Orbitals with angular momentum L= 1

SPLIT: Basis orbitals for state 2p

SPLIT: PAO cut-off radius determined from an
SPLIT: energy shift=  0.007350 Ry

   izeta = 1
                 lambda =    1.000000
                     rc =    4.972977
                 energy =   -0.513884
                kinetic =    3.441732
    potential(screened) =   -3.955616
       potential(ionic) =   -9.287901

   izeta = 2
                 rmatch =    3.054066
              splitnorm =    0.150000
                 energy =   -0.318226
                kinetic =    5.125348
    potential(screened) =   -5.443573
       potential(ionic) =  -11.380999

POLgen: Perturbative polarization orbital with L=  2

POLgen: Polarization orbital for state 2p

   izeta = 1
                     rc =    4.972977
                 energy =    1.607437
                kinetic =    3.268125
    potential(screened) =   -1.660688
       potential(ionic) =   -5.973652
atom: Total number of Sankey-type orbitals: 13

atm_pop: Valence configuration (for local Pseudopot. screening):
 2s( 2.00)                                                            
 2p( 3.00)                                                            
Vna: chval, zval:    5.00000   5.00000

Vna:  Cut-off radius for the neutral-atom potential:   4.972977
comcore: Pseudo-core radius Rcore=  1.554824

atom: _________________________________________________________________________

prinput: Basis input ----------------------------------------------------------

PAO.BasisType split     

%block ChemicalSpeciesLabel
    1    6 C                       # Species index, atomic number, species label
    2    7 N                       # Species index, atomic number, species label
%endblock ChemicalSpeciesLabel

%block PAO.Basis                 # Define Basis set
C                     2                    # Species label, number of l-shells
 n=2   0   2                         # n, l, Nzeta 
   4.633      3.432   
   1.000      1.000   
 n=2   1   2 P   1                   # n, l, Nzeta, Polarization, NzetaPol
   5.659      3.653   
   1.000      1.000   
N                     2                    # Species label, number of l-shells
 n=2   0   2                         # n, l, Nzeta 
   4.071      2.905   
   1.000      1.000   
 n=2   1   2 P   1                   # n, l, Nzeta, Polarization, NzetaPol
   4.973      3.054   
   1.000      1.000   
%endblock PAO.Basis

prinput: ----------------------------------------------------------------------

coor:   Atomic-coordinates input format  =     Cartesian coordinates
coor:                                          (in Angstroms)

siesta: Atomic coordinates (Bohr) and species
siesta:      2.23554   1.32097   0.00000  1        1
siesta:     32.50328  21.48508   0.00000  1        2
siesta:     34.83141  22.82873   0.00000  1        3
siesta:     34.83116  17.45226   0.00000  1        4
siesta:     37.15930  18.79590   0.00000  1        5
siesta:     32.50291  13.41944   0.00000  1        6
siesta:     34.83104  14.76308   0.00000  1        7
siesta:     30.17465   9.38661   0.00000  1        8
siesta:     32.50278  10.73026   0.00000  1        9
siesta:     27.84639   5.35379   0.00000  1       10
siesta:     30.17453   6.69743   0.00000  1       11
siesta:     27.84714  21.48508   0.00000  1       12
siesta:     30.17527  22.82873   0.00000  1       13
siesta:      6.89168   1.32097   0.00000  1       14
siesta:      9.21981   2.66461   0.00000  1       15
siesta:     11.54782   1.32097   0.00000  1       16
siesta:     13.87595   2.66461   0.00000  1       17
siesta:     16.20396   1.32097   0.00000  1       18
siesta:     18.53210   2.66461   0.00000  1       19
siesta:     23.19013   2.66461   0.00000  1       20
siesta:     25.51813   1.32097   0.00000  1       21
siesta:     27.84627   2.66461   0.00000  1       22
siesta:      4.56380   5.35379   0.00000  1       23
siesta:      6.89193   6.69743   0.00000  1       24
siesta:      9.21994   5.35379   0.00000  1       25
siesta:     11.54807   6.69743   0.00000  1       26
siesta:     16.20421   6.69743   0.00000  1       27
siesta:     18.53411   5.35379   0.00000  1       28
siesta:     20.86224   6.69743   0.00000  1       29
siesta:     23.19025   5.35379   0.00000  1       30
siesta:     25.51838   6.69743   0.00000  1       31
siesta:      9.22019  10.73026   0.00000  1       32
siesta:     11.54820   9.38661   0.00000  1       33
siesta:     13.87633  10.73026   0.00000  1       34
siesta:     18.53247  10.73026   0.00000  1       35
siesta:     20.86237   9.38661   0.00000  1       36
siesta:     23.19050  10.73026   0.00000  1       37
siesta:      9.22031  13.41944   0.00000  1       38
siesta:     11.54845  14.76308   0.00000  1       39
siesta:     13.87645  13.41944   0.00000  1       40
siesta:     16.20459  14.76308   0.00000  1       41
siesta:     18.53448  13.41944   0.00000  1       42
siesta:     20.86262  14.76308   0.00000  1       43
siesta:     13.87670  18.79590   0.00000  1       44
siesta:     16.20471  17.45226   0.00000  1       45
siesta:     18.53284  18.79590   0.00000  1       46
siesta:     13.87683  21.48508   0.00000  1       47
siesta:     16.20496  22.82873   0.00000  1       48
siesta:     18.53486  21.48508   0.00000  1       49
siesta:     20.86299  22.82873   0.00000  1       50
siesta:     27.84664  10.73026   0.00000  1       51
siesta:     23.19063  13.41944   0.00000  1       52
siesta:     25.51876  14.76308   0.00000  1       53
siesta:     23.19088  18.79590   0.00000  1       54
siesta:     27.84677  13.41944   0.00000  1       55
siesta:     30.17490  14.76308   0.00000  1       56
siesta:     25.51888  17.45226   0.00000  1       57
siesta:     27.84702  18.79590   0.00000  1       58
siesta:     23.19100  21.48508   0.00000  1       59
siesta:     25.51913  22.82873   0.00000  1       60
siesta:     32.50316  18.79590   0.00000  1       61
siesta:     37.16131  21.48508   0.00000  1       62
siesta:     39.48945  22.82873   0.00000  1       63
siesta:      4.56367   2.66461   0.00000  2       64
siesta:     20.86199   1.32097   0.00000  2       65
siesta:     13.87608   5.35379   0.00000  2       66
siesta:      6.89205   9.38661   0.00000  2       67
siesta:     16.20434   9.38661   0.00000  2       68
siesta:     11.54857  17.45226   0.00000  2       69
siesta:     25.51851   9.38661   0.00000  2       70
siesta:     20.86274  17.45226   0.00000  2       71
siesta:     30.17503  17.45226   0.00000  2       72

siesta: System type = slab      

initatomlists: Number of atoms, orbitals, and projectors:     72   936  1152

siesta: ******************** Simulation parameters ****************************
siesta:
siesta: The following are some of the parameters of the simulation.
siesta: A complete list of the parameters used, including default values,
siesta: can be found in file out.fdf
siesta:
redata: Non-Collinear-spin run           =     F
redata: SpinPolarized (Up/Down) run      =     F
redata: Number of spin components        =     1
redata: Long output                      =     F
redata: Number of Atomic Species         =        2
redata: Charge density info will appear in .RHO file
redata: Write Mulliken Pop.              =     NO
redata: Mesh Cutoff                      =   200.0000  Ry
redata: Net charge of the system         =     0.0000 |e|
redata: Max. number of SCF Iter          =      500
redata: SCF convergence failure will abort job
redata: Performing Pulay mixing using    =    10 iterations
redata: Mix DM in first SCF step ?       =     F
redata: Write Pulay info on disk?        =     F
redata: Discard 1st Pulay DM after  kick =     F
redata: New DM Mixing Weight             =     0.0500
redata: New DM Occupancy tolerance       = 0.000000000001
redata: No kicks to SCF
redata: DM Mixing Weight for Kicks       =     0.5000
redata: DM Tolerance for SCF             =     0.000100
redata: Require Energy convergence for SCF =     F
redata: DM Energy tolerance for SCF      =     0.000100 eV
redata: Require Harris convergence for SCF =     F
redata: DM Harris energy tolerance for SCF =     0.000100 eV
redata: Using Saved Data (generic)   =     F
redata: Use continuation files for DM    =     T
redata: Neglect nonoverlap interactions  =     F
redata: Method of Calculation            =     Diagonalization
redata: Divide and Conquer               =     T
redata: Electronic Temperature           =     0.0019  Ry
redata: Fix the spin of the system       =     F
redata: Dynamics option                  =     Verlet MD run
redata: Initial MD time step             =        1
redata:   Final MD time step             =        1
redata: Length of MD time step           =     1.0000  fs
redata: Initial Temperature of MD run    =     0.0000  K
redata: Perform a MD quench              =     F
redata: ***********************************************************************
Total number of electrons:   297.000000
Total ionic charge:   297.000000

* ProcessorY, Blocksize:    2  24

k-point displ. along   1 input, could be:     0.00    0.50
k-point displ. along   2 input, could be:     0.00    0.50
 Kpoints in:          364 . Kpoints trimmed:          352

siesta: k-grid: Number of k-points =   352
siesta: k-grid: Cutoff (effective) =     5.000 Ang
siesta: k-grid: Supercell and displacements
siesta: k-grid:   26   0   0      0.000
siesta: k-grid:    0  26   0      0.000
siesta: k-grid:    0   0   1      0.000
Naive supercell factors:     2    2    2

superc: Internal auxiliary supercell:     2 x     2 x     2  =       8
superc: Number of atoms, orbitals, and projectors:    576   7488   9216

* Maximum dynamic memory allocated =     6 MB

siesta:                 ==============================
                            Begin MD step =      1
                        ==============================

superc: Internal auxiliary supercell:     2 x     2 x     2  =       8
superc: Number of atoms, orbitals, and projectors:    576   7488   9216

outcell: Unit cell vectors (Ang):
       14.785000    0.000000    0.000000
        7.393000   12.805052    0.000000
        0.000000    0.000000   10.000000

outcell: Cell vector modules (Ang)   :   14.785000   14.786000   10.000000
outcell: Cell angles (23,13,12) (deg):     90.0000     90.0000     60.0000
outcell: Cell volume (Ang**3)        :   1893.2269
New_DM. Step:     1
Initializing Density Matrix...

iodm: Reading Density Matrix from files
 Read DM has different structure. Fixing...

InitMesh: MESH =   120 x   120 x    90 =     1296000
InitMesh: Mesh cutoff (required, used) =   200.000   223.865 Ry

* Maximum dynamic memory allocated =   187 MB

stepf: Fermi-Dirac step function

siesta: Program's energy decomposition (eV):
siesta: Ebs     =     -4254.411534
siesta: Eions   =     19849.732669
siesta: Ena     =      4064.210539
siesta: Ekin    =      8471.436495
siesta: Enl     =      -986.833075
siesta: DEna    =      -308.145404
siesta: DUscf   =       162.380632
siesta: DUext   =         0.000000
siesta: Exc     =     -4275.933788
siesta: eta*DQ  =         0.000000
siesta: Emadel  =         0.000000
siesta: Emeta   =         0.000000
siesta: Emolmec =         0.000000
siesta: Ekinion =         0.000000
siesta: Eharris =    -13089.729521
siesta: Etot    =    -12722.617270
siesta: FreeEng =    -12722.617270

siesta: iscf   Eharris(eV)      E_KS(eV)   FreeEng(eV)   dDmax  Ef(eV)
siesta:    1   -13089.7295   -12722.6173   -12722.6173  1.1496 -2.9113
timer: Routine,Calls,Time,% = IterSCF        1    6654.618  99.81
elaps: Routine,Calls,Wall,% = IterSCF        1     832.840  99.81
siesta:    2   -21811.5374   -10979.3967   -10979.4431 18.5369-15.8474
siesta:    3   -12908.4753   -12733.6234   -12733.6596  1.1572 -2.7579
siesta:    4   -12847.5197   -12739.0146   -12739.0429  1.0560 -2.8675
siesta:    5   -12771.4120   -12738.9017   -12738.9398  0.5465 -2.9346
siesta:    6   -12753.1362   -12734.1308   -12734.1691  0.5002 -2.9908
siesta:    7   -12743.3649   -12724.8485   -12724.8875  0.4202 -3.0357
siesta:    8   -12742.3312   -12719.9214   -12719.9607  0.3425 -3.1710
siesta:    9   -12741.4799   -12716.7866   -12716.8213  0.2441 -3.3424
siesta:   10   -12741.2722   -12713.8687   -12713.9054  0.1050 -3.5445
siesta:   11   -12740.5556   -12714.4213   -12714.4579  0.0880 -3.5345
siesta:   12   -12740.1343   -12716.2098   -12716.2547  0.0639 -3.5091
siesta:   13   -12739.9549   -12718.7406   -12718.7840  0.0526 -3.4956
siesta:   14   -12740.0343   -12720.5433   -12720.5855  0.0437 -3.4709
siesta:   15   -12739.9134   -12726.3260   -12726.3686  0.0306 -3.4251
siesta:   16   -12739.8743   -12730.3905   -12730.4332  0.0232 -3.4022
siesta:   17   -12739.8516   -12733.1367   -12733.1803  0.0159 -3.3881
siesta:   18   -12739.8550   -12735.0234   -12735.0668  0.0095 -3.3890
siesta:   19   -12739.8446   -12736.9651   -12737.0078  0.0088 -3.3971
siesta:   20   -12739.8418   -12738.1363   -12738.1790  0.0082 -3.4012
siesta:   21   -12739.8385   -12739.1283   -12739.1713  0.0036 -3.4064
siesta:   22   -12739.8380   -12739.3019   -12739.3450  0.0033 -3.4077
siesta:   23   -12739.8374   -12739.4716   -12739.5146  0.0029 -3.4079
siesta:   24   -12739.8373   -12739.6341   -12739.6772  0.0020 -3.4079
siesta:   25   -12739.8374   -12739.6874   -12739.7305  0.0018 -3.4076
siesta:   26   -12739.8374   -12739.7248   -12739.7678  0.0013 -3.4071
siesta:   27   -12739.8373   -12739.7103   -12739.7533  0.0010 -3.4072
siesta:   28   -12739.8373   -12739.8024   -12739.8454  0.0003 -3.4071
siesta:   29   -12739.8373   -12739.8318   -12739.8748  0.0002 -3.4070
siesta:   30   -12739.8373   -12739.8447   -12739.8877  0.0002 -3.4070
siesta:   31   -12739.8373   -12739.8420   -12739.8851  0.0001 -3.4069

siesta: E_KS(eV) =           -12739.8377

siesta: E_KS - E_eggbox =    -12739.8377

siesta: Atomic forces (eV/Ang):
----------------------------------------
   Tot    0.199198   -0.291835    0.000000
----------------------------------------
   Max    1.298727
   Res    0.303290    sqrt( Sum f_i^2 / 3N )
----------------------------------------
   Max    1.298727    constrained

Stress-tensor-Voigt (kbar):        0.72        1.18        0.15       -0.43        0.00        0.00
(Free)E + p*V (eV/cell)   -12740.6882
Target enthalpy (eV/cell)   -12739.8808

siesta: Stress tensor (static) (eV/Ang**3):
         0.000451   -0.000270    0.000000
        -0.000270    0.000737    0.000000
         0.000000    0.000000    0.000091

siesta: Pressure (static):         -0.68331919  kBar

siesta: Stress tensor (total) (eV/Ang**3):
         0.000451   -0.000270    0.000000
        -0.000270    0.000737    0.000000
         0.000000    0.000000    0.000091

siesta: Pressure (total):         -0.68331919  kBar

siesta: Temp_ion =       0.000 K

* Maximum dynamic memory allocated =   203 MB

siesta: Program's energy decomposition (eV):
siesta: Ebs     =     -4186.033388
siesta: Eions   =     19849.732669
siesta: Ena     =      4064.210539
siesta: Ekin    =      8579.727433
siesta: Enl     =     -1058.939228
siesta: DEna    =      -247.238518
siesta: DUscf   =        22.410005
siesta: DUext   =         0.000000
siesta: Exc     =     -4250.275306
siesta: eta*DQ  =         0.000000
siesta: Emadel  =         0.000000
siesta: Emeta   =         0.000000
siesta: Emolmec =         0.000000
siesta: Ekinion =         0.000000
siesta: Eharris =    -12739.837299
siesta: Etot    =    -12739.837743
siesta: FreeEng =    -12739.880792

siesta: Final energy (eV):
siesta:  Band Struct. =   -4186.033388
siesta:       Kinetic =    8579.727433
siesta:       Hartree =   24798.207792
siesta:    Ext. field =       0.000000
siesta:   Exch.-corr. =   -4250.275306
siesta:  Ion-electron =  -57573.487097
siesta:       Ion-ion =   15705.989434
siesta:       Ekinion =       0.000000
siesta:         Total =  -12739.837743

siesta: Atomic forces (eV/Ang):
siesta:      1    0.234855    0.248150    0.000000
siesta:      2   -0.000497   -0.120120    0.000000
siesta:      3    0.068568    0.456142    0.000000
siesta:      4   -0.016603   -0.373659    0.000000
siesta:      5    0.258870    0.160775    0.000000
siesta:      6    0.146805    0.174893    0.000000
siesta:      7    0.120546   -0.047869    0.000000
siesta:      8    0.115554    0.321315    0.000000
siesta:      9    0.144389   -0.230826    0.000000
siesta:     10   -0.215449    0.909685    0.000000
siesta:     11    0.274729   -1.148523    0.000000
siesta:     12    0.557604   -0.402395    0.000000
siesta:     13   -0.523219    0.377987    0.000000
siesta:     14   -0.127367   -0.020024    0.000000
siesta:     15   -0.960911   -0.339780    0.000000
siesta:     16    0.138170    0.338228    0.000000
siesta:     17    0.136826    0.518996    0.000000
siesta:     18    0.235930   -0.055208    0.000000
siesta:     19    0.804882   -0.472900    0.000000
siesta:     20   -0.245145   -0.340576    0.000000
siesta:     21   -0.513231   -0.648017    0.000000
siesta:     22    0.513597   -0.030051    0.000000
siesta:     23   -0.041714    0.110739    0.000000
siesta:     24   -0.153742    0.108387    0.000000
siesta:     25    0.933467    0.911224    0.000000
siesta:     26    0.058140   -1.298727    0.000000
siesta:     27   -0.548734   -0.050354    0.000000
siesta:     28   -0.240972    0.110714    0.000000
siesta:     29   -0.025107    0.033269    0.000000
siesta:     30   -0.385117    0.135075    0.000000
siesta:     31    0.338987    0.242828    0.000000
siesta:     32   -0.163015   -0.704384    0.000000
siesta:     33    0.314702    0.166300    0.000000
siesta:     34   -0.030531   -0.007445    0.000000
siesta:     35   -0.044713   -0.126937    0.000000
siesta:     36    0.018041   -0.184051    0.000000
siesta:     37    0.224765   -0.189634    0.000000
siesta:     38   -0.240101    0.398198    0.000000
siesta:     39   -0.076087    0.171923    0.000000
siesta:     40    0.324799    0.069359    0.000000
siesta:     41   -0.042984    0.169285    0.000000
siesta:     42   -0.274532    0.014714    0.000000
siesta:     43   -0.008819    0.322444    0.000000
siesta:     44   -0.295360   -0.100168    0.000000
siesta:     45   -0.224736   -0.484755    0.000000
siesta:     46    0.597401    0.462652    0.000000
siesta:     47   -0.793125   -0.169759    0.000000
siesta:     48    0.458106    0.338323    0.000000
siesta:     49    0.258680   -0.924105    0.000000
siesta:     50   -0.319696    0.874130    0.000000
siesta:     51   -0.058986   -0.428389    0.000000
siesta:     52    0.235714    0.149555    0.000000
siesta:     53    0.016096   -0.039591    0.000000
siesta:     54   -0.446845    0.140267    0.000000
siesta:     55   -0.234220    0.279273    0.000000
siesta:     56    0.063602    0.131147    0.000000
siesta:     57    0.085954   -0.258536    0.000000
siesta:     58    0.332024   -0.057722    0.000000
siesta:     59   -0.197819   -0.374994    0.000000
siesta:     60    0.075434   -0.165568    0.000000
siesta:     61   -0.210166    0.098179    0.000000
siesta:     62   -0.040551   -0.237584    0.000000
siesta:     63    0.495268    0.316686    0.000000
siesta:     64    0.019535   -0.020174    0.000000
siesta:     65   -0.271989    0.083743    0.000000
siesta:     66    0.145575    0.959926    0.000000
siesta:     67   -0.099646    0.289382    0.000000
siesta:     68   -0.256252   -0.482495    0.000000
siesta:     69    0.082641   -0.063684    0.000000
siesta:     70   -0.179863    0.135183    0.000000
siesta:     71   -0.075089   -0.329582    0.000000
siesta:     72   -0.048125   -0.092325    0.000000
siesta: ----------------------------------------
siesta:    Tot    0.199198   -0.291835    0.000000

siesta: Stress tensor (static) (eV/Ang**3):
siesta:     0.000451   -0.000270    0.000000
siesta:    -0.000270    0.000737    0.000000
siesta:     0.000000    0.000000    0.000091

siesta: Cell volume =       1893.226895 Ang**3

siesta: Pressure (static):
siesta:                Solid            Molecule  Units
siesta:          -0.00000465         -0.00002887  Ry/Bohr**3
siesta:          -0.00042649         -0.00265053  eV/Ang**3
siesta:          -0.68331919         -4.24667008  kBar
(Free)E+ p_basis*V_orbitals  =      -12710.429845
(Free)Eharris+ p_basis*V_orbitals  =      -12710.425138

siesta: Electric dipole (a.u.)  =    0.000000    0.000000    0.000000
siesta: Electric dipole (Debye) =    0.000000    0.000000    0.000000

* Maximum dynamic memory allocated : Node    0 =   203 MB
* Maximum dynamic memory allocated : Node    1 =    75 MB
* Maximum dynamic memory allocated : Node    2 =    76 MB
* Maximum dynamic memory allocated : Node    3 =   193 MB
* Maximum dynamic memory allocated : Node    4 =   203 MB
* Maximum dynamic memory allocated : Node    5 =    74 MB
* Maximum dynamic memory allocated : Node    6 =    76 MB
* Maximum dynamic memory allocated : Node    7 =   188 MB

* Maximum memory occured during matrixMtoO                    

timer: CPU execution times:
timer:  Routine       Calls   Time/call    Tot.time        %
timer:  siesta            1  204052.980  204052.980   100.00
timer:  Setup             1       3.780       3.780     0.00
timer:  bands             1       0.018       0.018     0.00
timer:  writewave         1       0.041       0.041     0.00
timer:  KSV_init          1       0.006       0.006     0.00
timer:  IterMD            1  204041.282  204041.282    99.99
timer:  hsparse           1       0.255       0.255     0.00
timer:  overlap           1       6.349       6.349     0.00
timer:  IterSCF          31    6576.618  203875.171    99.91
timer:  kinefsm           2       3.264       6.528     0.00
timer:  nlefsm            2      18.790      37.580     0.02
timer:  DHSCF            32      87.408    2797.060     1.37
timer:  DHSCF1            1       0.760       0.760     0.00
timer:  DHSCF2            1      32.861      32.861     0.02
timer:  REORD           258       0.010       2.551     0.00
timer:  POISON           33       2.246      74.109     0.04
timer:  DHSCF3           32      85.337    2730.785     1.34
timer:  rhoofd           32      16.205     518.564     0.25
timer:  cellXC           32       3.456     110.585     0.05
timer:  vmat             32      43.678    1397.701     0.68
timer:  MolMec            2       0.000       0.000     0.00
timer:  diagon           31    6487.486  201112.077    98.56
timer:  c-eigval      10912       6.694   73047.668    35.80
timer:  c-buildHS     10912       0.118    1282.877     0.63
timer:  cdiag         21824       6.880  150157.269    73.59
timer:  cdiag1        21824       0.429    9353.171     4.58
timer:  cdiag2        21824       1.908   41630.435    20.40
timer:  cdiag3        21824       3.966   86544.844    42.41
timer:  cdiag4        21824       0.204    4447.679     2.18
timer:  c-eigvec      10912       7.256   79178.776    38.80
timer:  c-buildD      10912       4.472   48794.012    23.91
timer:  DHSCF4            1      30.926      30.926     0.02
timer:  dfscf             1      29.098      29.098     0.01
timer:  overfsm           1       0.381       0.381     0.00
timer:  optical           1       6.973       6.973     0.00
  

elaps: ELAPSED times:
elaps:  Routine       Calls   Time/call    Tot.time        %
elaps:  siesta            1   25534.696   25534.696   100.00
elaps:  Setup             1       0.489       0.489     0.00
elaps:  bands             1       0.002       0.002     0.00
elaps:  writewave         1       0.006       0.006     0.00
elaps:  KSV_init          1       0.001       0.001     0.00
elaps:  IterMD            1   25533.207   25533.207    99.99
elaps:  hsparse           1       0.032       0.032     0.00
elaps:  overlap           1       0.524       0.524     0.00
elaps:  IterSCF          31     822.985   25512.543    99.91
elaps:  kinefsm           2       0.278       0.556     0.00
elaps:  nlefsm            2       2.474       4.948     0.02
elaps:  DHSCF            32      11.035     353.126     1.38
elaps:  DHSCF1            1       0.098       0.098     0.00
elaps:  DHSCF2            1       4.106       4.106     0.02
elaps:  REORD           258       0.001       0.335     0.00
elaps:  POISON           33       0.281       9.287     0.04
elaps:  DHSCF3           32      10.676     341.630     1.34
elaps:  rhoofd           32       3.508     112.251     0.44
elaps:  cellXC           32       0.431      13.794     0.05
elaps:  vmat             32       5.464     174.845     0.68
elaps:  MolMec            2       0.000       0.000     0.00
elaps:  diagon           31     811.846   25167.216    98.56
elaps:  c-eigval      10912       0.838    9139.381    35.79
elaps:  c-buildHS     10912       0.016     175.141     0.69
elaps:  cdiag         21824       0.847   18485.852    72.40
elaps:  cdiag1        21824       0.053    1155.258     4.52
elaps:  cdiag2        21824       0.239    5208.672    20.40
elaps:  cdiag3        21824       0.497   10842.873    42.46
elaps:  cdiag4        21824       0.026     558.611     2.19
elaps:  c-eigvec      10912       0.884    9644.717    37.77
elaps:  c-buildD      10912       0.584    6370.271    24.95
elaps:  DHSCF4            1       7.061       7.061     0.03
elaps:  dfscf             1       6.684       6.684     0.03
elaps:  overfsm           1       0.048       0.048     0.00
elaps:  optical           1       0.001       0.001     0.00
  
>> End of run:  29-NOV-2015  15:01:32
