Siesta Version:                                        siesta-3.2-pl-3
Architecture  : x86_64-unknown-linux-gnu--unknown
Compiler flags: mpiifort -g -O2 -fPIC -xSSE4.1 -fp-model source -shared-intel 
PARALLEL version

* Running on    8 nodes in parallel
>> Start of run:   3-DEC-2015  21:09:39

                           ***********************       
                           *  WELCOME TO SIESTA  *       
                           ***********************       

reinit: Reading from standard input
************************** Dump of input data file ****************************
#(1) General system descriptors
SystemName            GRP_doping    # Descriptive name of the system
SystemLabel           GRP_doping    # Short name for naming files
%include STRUCT.fdf
%include KPT.fdf
%include BASIS.fdf
#%include TS.fdf # for transiesta calculation
#(4) DFT, Grid, SCF
XC.functional         GGA           # LDA or GGA (default = LDA)
XC.authors            PBE           # CA (Ceperley-Aldr) = PZ
                                    #    (Perdew-Zunger) - LDA - Default
                                    # PW92 (Perdew-Wang-92) - LDA
                                    # PBE (Perdew-Burke-Ernzerhof) - GGA
MeshCutoff            200.000000    Ry      # Default: 50.0 Ry ~ 0.444 Bohr
                                    #         100.0 Ry ~ 0.314 Bohr
MaxSCFIterations      500           # Default: 50
DM.MixingWeight       0.05          # Default: 0.25
DM.NumberPulay        10            # Default: 0
DM.PulayOnFile        F             # SystemLabel.P1, SystemLabel.P2
DM.Tolerance          1.d-4         # Default: 1.d-4
DM.UseSaveDM          .true.        # because of the bug
SCFMustConverge       .true.
NeglNonOverlapInt     F             # Default: F
#(5) Eigenvalue problem: order-N or diagonalization
SolutionMethod        Diagon        # or Transiesta
ElectronicTemperature 300.0 K       # Default: 300.0 K
#(6) Molecular dynamics and relaxations
#MD.TypeOfRun          CG            # Type of dynamics:
#MD.VariableCell       F
#MD.NumCGsteps         0           # 0 for single-point / 100 for gopt
#MD.MaxCGDispl         0.2 Bohr      # Default: 0.2 Bohr
#MD.MaxForceTol        0.02 eV/Ang   # Default: 0.04 eV/Ang
#MD.MaxStressTol       1.0 GPa       # Default: 1.0 GPa
# Geometry Constraints
#%block GeometryConstraints
#	position from 1 to 44
#%endblock GeometryConstraints
************************** End of input data file *****************************

reinit: -----------------------------------------------------------------------
reinit: System Name: GRP_doping
reinit: -----------------------------------------------------------------------
reinit: System Label: GRP_doping                                                  
reinit: -----------------------------------------------------------------------

initatom: Reading input for the pseudopotentials and atomic orbitals ----------
 Species number:            1  Label: C Atomic number:           6
 Species number:            2  Label: B Atomic number:           5
Ground state valence configuration:   2s02  2p02
Reading pseudopotential information in formatted form from C.psf

Valence configuration for pseudopotential generation:
2s( 2.00) rc: 1.54
2p( 2.00) rc: 1.54
3d( 0.00) rc: 1.54
4f( 0.00) rc: 1.54
Ground state valence configuration:   2s02  2p01
Reading pseudopotential information in formatted form from B.psf

Valence configuration for pseudopotential generation:
2s( 2.00) rc: 1.74
2p( 1.00) rc: 1.74
3d( 0.00) rc: 1.74
4f( 0.00) rc: 1.74
For C, standard SIESTA heuristics set lmxkb to 3
 (one more than the basis l, including polarization orbitals).
Use PS.lmax or PS.KBprojectors blocks to override.
For B, standard SIESTA heuristics set lmxkb to 3
 (one more than the basis l, including polarization orbitals).
Use PS.lmax or PS.KBprojectors blocks to override.

<basis_specs>
===============================================================================
C                    Z=   6    Mass=  12.010        Charge= 0.17977+309
Lmxo=1 Lmxkb= 3    BasisType=split      Semic=F
L=0  Nsemic=0  Cnfigmx=2
          n=1  nzeta=2  polorb=0
            splnorm:   0.15000    
               vcte:    0.0000    
               rinn:    0.0000    
                rcs:    0.0000      0.0000    
            lambdas:    1.0000      1.0000    
L=1  Nsemic=0  Cnfigmx=2
          n=1  nzeta=2  polorb=1
            splnorm:   0.15000    
               vcte:    0.0000    
               rinn:    0.0000    
                rcs:    0.0000      0.0000    
            lambdas:    1.0000      1.0000    
-------------------------------------------------------------------------------
L=0  Nkbl=1  erefs: 0.17977+309
L=1  Nkbl=1  erefs: 0.17977+309
L=2  Nkbl=1  erefs: 0.17977+309
L=3  Nkbl=1  erefs: 0.17977+309
===============================================================================
</basis_specs>

atom: Called for C                     (Z =   6)

read_vps: Pseudopotential generation method:
read_vps: ATM3      Troullier-Martins                       
Total valence charge:    4.00000

read_vps: Pseudopotential includes a core correction:
read_vps: Pseudo-core for xc-correction

xc_check: Exchange-correlation functional:
xc_check: GGA Perdew, Burke & Ernzerhof 1996
V l=0 = -2*Zval/r beyond r=  1.5227
V l=1 = -2*Zval/r beyond r=  1.5227
V l=2 = -2*Zval/r beyond r=  1.5227
V l=3 = -2*Zval/r beyond r=  1.5038
All V_l potentials equal beyond r=  1.5227
This should be close to max(r_c) in ps generation
All pots = -2*Zval/r beyond r=  1.5227

VLOCAL1: 99.0% of the norm of Vloc inside     18.722 Ry
VLOCAL1: 99.9% of the norm of Vloc inside     42.668 Ry
atom: Maximum radius for 4*pi*r*r*local-pseudopot. charge    1.83678
atom: Maximum radius for r*vlocal+2*Zval:    1.58088
GHOST: No ghost state for L =  0
GHOST: No ghost state for L =  1
GHOST: No ghost state for L =  2
GHOST: No ghost state for L =  3

KBgen: Kleinman-Bylander projectors: 
   l= 0   rc=  1.704034   el= -1.009801   Ekb=  5.335044   kbcos=  0.316824
   l= 1   rc=  1.704034   el= -0.388707   Ekb= -3.785862   kbcos= -0.366464
   l= 2   rc=  1.791422   el=  0.001971   Ekb= -0.970471   kbcos= -0.009212
   l= 3   rc=  1.859892   el=  0.003065   Ekb= -0.399525   kbcos= -0.001223

KBgen: Total number of  Kleinman-Bylander projectors:   16
atom: -------------------------------------------------------------------------

atom: SANKEY-TYPE ORBITALS:
atom: Selected multiple-zeta basis: split     

SPLIT: Orbitals with angular momentum L= 0

SPLIT: Basis orbitals for state 2s

SPLIT: PAO cut-off radius determined from an
SPLIT: energy shift=  0.007350 Ry

   izeta = 1
                 lambda =    1.000000
                     rc =    4.632753
                 energy =   -1.002270
                kinetic =    0.855760
    potential(screened) =   -1.858031
       potential(ionic) =   -5.417575

   izeta = 2
                 rmatch =    3.431921
              splitnorm =    0.150000
                 energy =   -0.867111
                kinetic =    1.300804
    potential(screened) =   -2.167915
       potential(ionic) =   -5.962684

SPLIT: Orbitals with angular momentum L= 1

SPLIT: Basis orbitals for state 2p

SPLIT: PAO cut-off radius determined from an
SPLIT: energy shift=  0.007350 Ry

   izeta = 1
                 lambda =    1.000000
                     rc =    5.658549
                 energy =   -0.381140
                kinetic =    2.399701
    potential(screened) =   -2.780841
       potential(ionic) =   -6.206085

   izeta = 2
                 rmatch =    3.653288
              splitnorm =    0.150000
                 energy =   -0.249149
                kinetic =    3.542762
    potential(screened) =   -3.791911
       potential(ionic) =   -7.581078

POLgen: Perturbative polarization orbital with L=  2

POLgen: Polarization orbital for state 2p

   izeta = 1
                     rc =    5.658549
                 energy =    1.109913
                kinetic =    2.304789
    potential(screened) =   -1.194876
       potential(ionic) =   -4.013592
atom: Total number of Sankey-type orbitals: 13

atm_pop: Valence configuration (for local Pseudopot. screening):
 2s( 2.00)                                                            
 2p( 2.00)                                                            
Vna: chval, zval:    4.00000   4.00000

Vna:  Cut-off radius for the neutral-atom potential:   5.658549
comcore: Pseudo-core radius Rcore=  1.791422

atom: _________________________________________________________________________

<basis_specs>
===============================================================================
B                    Z=   5    Mass=  10.810        Charge= 0.17977+309
Lmxo=1 Lmxkb= 3    BasisType=split      Semic=F
L=0  Nsemic=0  Cnfigmx=2
          n=1  nzeta=2  polorb=0
            splnorm:   0.15000    
               vcte:    0.0000    
               rinn:    0.0000    
                rcs:    0.0000      0.0000    
            lambdas:    1.0000      1.0000    
L=1  Nsemic=0  Cnfigmx=2
          n=1  nzeta=2  polorb=1
            splnorm:   0.15000    
               vcte:    0.0000    
               rinn:    0.0000    
                rcs:    0.0000      0.0000    
            lambdas:    1.0000      1.0000    
-------------------------------------------------------------------------------
L=0  Nkbl=1  erefs: 0.17977+309
L=1  Nkbl=1  erefs: 0.17977+309
L=2  Nkbl=1  erefs: 0.17977+309
L=3  Nkbl=1  erefs: 0.17977+309
===============================================================================
</basis_specs>

atom: Called for B                     (Z =   5)

read_vps: Pseudopotential generation method:
read_vps: ATM3      Troullier-Martins                       
Total valence charge:    3.00000

read_vps: Pseudopotential includes a core correction:
read_vps: Pseudo-core for xc-correction

xc_check: Exchange-correlation functional:
xc_check: GGA Perdew, Burke & Ernzerhof 1996
V l=0 = -2*Zval/r beyond r=  1.7165
V l=1 = -2*Zval/r beyond r=  1.7165
V l=2 = -2*Zval/r beyond r=  1.7165
V l=3 = -2*Zval/r beyond r=  1.6951
All V_l potentials equal beyond r=  1.7165
This should be close to max(r_c) in ps generation
All pots = -2*Zval/r beyond r=  1.7165

VLOCAL1: 99.0% of the norm of Vloc inside     14.733 Ry
VLOCAL1: 99.9% of the norm of Vloc inside     33.577 Ry
atom: Maximum radius for 4*pi*r*r*local-pseudopot. charge    2.04484
atom: Maximum radius for r*vlocal+2*Zval:    1.75994
GHOST: No ghost state for L =  0
GHOST: No ghost state for L =  1
GHOST: No ghost state for L =  2
GHOST: No ghost state for L =  3

KBgen: Kleinman-Bylander projectors: 
   l= 0   rc=  1.897051   el= -0.693730   Ekb=  4.595746   kbcos=  0.286105
   l= 1   rc=  1.920920   el= -0.265236   Ekb= -2.350715   kbcos= -0.315747
   l= 2   rc=  2.044840   el=  0.002055   Ekb= -0.690767   kbcos= -0.013822
   l= 3   rc=  2.149707   el=  0.003188   Ekb= -0.315358   kbcos= -0.002055

KBgen: Total number of  Kleinman-Bylander projectors:   16
atom: -------------------------------------------------------------------------

atom: SANKEY-TYPE ORBITALS:
atom: Selected multiple-zeta basis: split     

SPLIT: Orbitals with angular momentum L= 0

SPLIT: Basis orbitals for state 2s

SPLIT: PAO cut-off radius determined from an
SPLIT: energy shift=  0.007350 Ry

   izeta = 1
                 lambda =    1.000000
                     rc =    5.422032
                 energy =   -0.686029
                kinetic =    0.576707
    potential(screened) =   -1.262736
       potential(ionic) =   -3.271094

   izeta = 2
                 rmatch =    4.222573
              splitnorm =    0.150000
                 energy =   -0.602132
                kinetic =    0.858975
    potential(screened) =   -1.461107
       potential(ionic) =   -3.582536

SPLIT: Orbitals with angular momentum L= 1

SPLIT: Basis orbitals for state 2p

SPLIT: PAO cut-off radius determined from an
SPLIT: energy shift=  0.007350 Ry

   izeta = 1
                 lambda =    1.000000
                     rc =    6.790259
                 energy =   -0.258578
                kinetic =    1.481412
    potential(screened) =   -1.739989
       potential(ionic) =   -3.657461

   izeta = 2
                 rmatch =    4.608740
              splitnorm =    0.150000
                 energy =   -0.173757
                kinetic =    2.186690
    potential(screened) =   -2.360447
       potential(ionic) =   -4.464260

POLgen: Perturbative polarization orbital with L=  2

POLgen: Polarization orbital for state 2p

   izeta = 1
                     rc =    6.790259
                 energy =    0.684082
                kinetic =    1.471481
    potential(screened) =   -0.787399
       potential(ionic) =   -2.406985
atom: Total number of Sankey-type orbitals: 13

atm_pop: Valence configuration (for local Pseudopot. screening):
 2s( 2.00)                                                            
 2p( 1.00)                                                            
Vna: chval, zval:    3.00000   3.00000

Vna:  Cut-off radius for the neutral-atom potential:   6.790259
comcore: Pseudo-core radius Rcore=  2.122997

atom: _________________________________________________________________________

prinput: Basis input ----------------------------------------------------------

PAO.BasisType split     

%block ChemicalSpeciesLabel
    1    6 C                       # Species index, atomic number, species label
    2    5 B                       # Species index, atomic number, species label
%endblock ChemicalSpeciesLabel

%block PAO.Basis                 # Define Basis set
C                     2                    # Species label, number of l-shells
 n=2   0   2                         # n, l, Nzeta 
   4.633      3.432   
   1.000      1.000   
 n=2   1   2 P   1                   # n, l, Nzeta, Polarization, NzetaPol
   5.659      3.653   
   1.000      1.000   
B                     2                    # Species label, number of l-shells
 n=2   0   2                         # n, l, Nzeta 
   5.422      4.223   
   1.000      1.000   
 n=2   1   2 P   1                   # n, l, Nzeta, Polarization, NzetaPol
   6.790      4.609   
   1.000      1.000   
%endblock PAO.Basis

prinput: ----------------------------------------------------------------------

coor:   Atomic-coordinates input format  =     Cartesian coordinates
coor:                                          (in Angstroms)

siesta: Atomic coordinates (Bohr) and species
siesta:      2.23554   1.32097   0.00000  1        1
siesta:     32.50291  13.41944   0.00000  1        2
siesta:     34.83104  14.76308   0.00000  1        3
siesta:     30.17465   9.38661   0.00000  1        4
siesta:     32.50278  10.73026   0.00000  1        5
siesta:     27.84639   5.35379   0.00000  1        6
siesta:     30.17453   6.69743   0.00000  1        7
siesta:     27.84714  21.48508   0.00000  1        8
siesta:     30.17527  22.82873   0.00000  1        9
siesta:     11.54782   1.32097   0.00000  1       10
siesta:     13.87595   2.66461   0.00000  1       11
siesta:     16.20396   1.32097   0.00000  1       12
siesta:     18.53210   2.66461   0.00000  1       13
siesta:     20.86199   1.32097   0.00000  1       14
siesta:     23.19013   2.66461   0.00000  1       15
siesta:     25.51813   1.32097   0.00000  1       16
siesta:     27.84627   2.66461   0.00000  1       17
siesta:     11.54807   6.69743   0.00000  1       18
siesta:     13.87608   5.35379   0.00000  1       19
siesta:     16.20421   6.69743   0.00000  1       20
siesta:     18.53411   5.35379   0.00000  1       21
siesta:     20.86224   6.69743   0.00000  1       22
siesta:     23.19025   5.35379   0.00000  1       23
siesta:     25.51838   6.69743   0.00000  1       24
siesta:      6.89205   9.38661   0.00000  1       25
siesta:      9.22019  10.73026   0.00000  1       26
siesta:     11.54820   9.38661   0.00000  1       27
siesta:     13.87633  10.73026   0.00000  1       28
siesta:     16.20434   9.38661   0.00000  1       29
siesta:      9.22031  13.41944   0.00000  1       30
siesta:     11.54845  14.76308   0.00000  1       31
siesta:     13.87645  13.41944   0.00000  1       32
siesta:     16.20459  14.76308   0.00000  1       33
siesta:     11.54857  17.45226   0.00000  1       34
siesta:     13.87670  18.79590   0.00000  1       35
siesta:     16.20471  17.45226   0.00000  1       36
siesta:     18.53284  18.79590   0.00000  1       37
siesta:     13.87683  21.48508   0.00000  1       38
siesta:     16.20496  22.82873   0.00000  1       39
siesta:     18.53486  21.48508   0.00000  1       40
siesta:     20.86299  22.82873   0.00000  1       41
siesta:     25.51851   9.38661   0.00000  1       42
siesta:     27.84664  10.73026   0.00000  1       43
siesta:     25.51876  14.76308   0.00000  1       44
siesta:     20.86274  17.45226   0.00000  1       45
siesta:     23.19088  18.79590   0.00000  1       46
siesta:     27.84677  13.41944   0.00000  1       47
siesta:     30.17490  14.76308   0.00000  1       48
siesta:     25.51888  17.45226   0.00000  1       49
siesta:     27.84702  18.79590   0.00000  1       50
siesta:     23.19100  21.48508   0.00000  1       51
siesta:     25.51913  22.82873   0.00000  1       52
siesta:     30.17503  17.45226   0.00000  1       53
siesta:     39.48945  22.82873   0.00000  1       54
siesta:      4.56367   2.66461   0.00000  2       55
siesta:     32.50328  21.48508   0.00000  2       56
siesta:     34.83141  22.82873   0.00000  2       57
siesta:     34.83116  17.45226   0.00000  2       58
siesta:     37.15930  18.79590   0.00000  2       59
siesta:      6.89168   1.32097   0.00000  2       60
siesta:      9.21981   2.66461   0.00000  2       61
siesta:      4.56380   5.35379   0.00000  2       62
siesta:      6.89193   6.69743   0.00000  2       63
siesta:      9.21994   5.35379   0.00000  2       64
siesta:     18.53247  10.73026   0.00000  2       65
siesta:     20.86237   9.38661   0.00000  2       66
siesta:     23.19050  10.73026   0.00000  2       67
siesta:     18.53448  13.41944   0.00000  2       68
siesta:     20.86262  14.76308   0.00000  2       69
siesta:     23.19063  13.41944   0.00000  2       70
siesta:     32.50316  18.79590   0.00000  2       71
siesta:     37.16131  21.48508   0.00000  2       72

siesta: System type = slab      

initatomlists: Number of atoms, orbitals, and projectors:     72   936  1152

siesta: ******************** Simulation parameters ****************************
siesta:
siesta: The following are some of the parameters of the simulation.
siesta: A complete list of the parameters used, including default values,
siesta: can be found in file out.fdf
siesta:
redata: Non-Collinear-spin run           =     F
redata: SpinPolarized (Up/Down) run      =     F
redata: Number of spin components        =     1
redata: Long output                      =     F
redata: Number of Atomic Species         =        2
redata: Charge density info will appear in .RHO file
redata: Write Mulliken Pop.              =     NO
redata: Mesh Cutoff                      =   200.0000  Ry
redata: Net charge of the system         =     0.0000 |e|
redata: Max. number of SCF Iter          =      500
redata: SCF convergence failure will abort job
redata: Performing Pulay mixing using    =    10 iterations
redata: Mix DM in first SCF step ?       =     F
redata: Write Pulay info on disk?        =     F
redata: Discard 1st Pulay DM after  kick =     F
redata: New DM Mixing Weight             =     0.0500
redata: New DM Occupancy tolerance       = 0.000000000001
redata: No kicks to SCF
redata: DM Mixing Weight for Kicks       =     0.5000
redata: DM Tolerance for SCF             =     0.000100
redata: Require Energy convergence for SCF =     F
redata: DM Energy tolerance for SCF      =     0.000100 eV
redata: Require Harris convergence for SCF =     F
redata: DM Harris energy tolerance for SCF =     0.000100 eV
redata: Using Saved Data (generic)   =     F
redata: Use continuation files for DM    =     T
redata: Neglect nonoverlap interactions  =     F
redata: Method of Calculation            =     Diagonalization
redata: Divide and Conquer               =     T
redata: Electronic Temperature           =     0.0019  Ry
redata: Fix the spin of the system       =     F
redata: Dynamics option                  =     Verlet MD run
redata: Initial MD time step             =        1
redata:   Final MD time step             =        1
redata: Length of MD time step           =     1.0000  fs
redata: Initial Temperature of MD run    =     0.0000  K
redata: Perform a MD quench              =     F
redata: ***********************************************************************
Total number of electrons:   270.000000
Total ionic charge:   270.000000

* ProcessorY, Blocksize:    2  24

k-point displ. along   1 input, could be:     0.00    0.50
k-point displ. along   2 input, could be:     0.00    0.50
 Kpoints in:          364 . Kpoints trimmed:          352

siesta: k-grid: Number of k-points =   352
siesta: k-grid: Cutoff (effective) =     5.000 Ang
siesta: k-grid: Supercell and displacements
siesta: k-grid:   26   0   0      0.000
siesta: k-grid:    0  26   0      0.000
siesta: k-grid:    0   0   1      0.000
Naive supercell factors:     2    2    2

superc: Internal auxiliary supercell:     2 x     2 x     2  =       8
superc: Number of atoms, orbitals, and projectors:    576   7488   9216

* Maximum dynamic memory allocated =     6 MB

siesta:                 ==============================
                            Begin MD step =      1
                        ==============================

superc: Internal auxiliary supercell:     2 x     2 x     2  =       8
superc: Number of atoms, orbitals, and projectors:    576   7488   9216

outcell: Unit cell vectors (Ang):
       14.785000    0.000000    0.000000
        7.393000   12.805052    0.000000
        0.000000    0.000000   10.000000

outcell: Cell vector modules (Ang)   :   14.785000   14.786000   10.000000
outcell: Cell angles (23,13,12) (deg):     90.0000     90.0000     60.0000
outcell: Cell volume (Ang**3)        :   1893.2269
New_DM. Step:     1
Initializing Density Matrix...

InitMesh: MESH =   120 x   120 x    90 =     1296000
InitMesh: Mesh cutoff (required, used) =   200.000   223.865 Ry

* Maximum dynamic memory allocated =   218 MB

stepf: Fermi-Dirac step function

siesta: Program's energy decomposition (eV):
siesta: Ebs     =     -4308.594626
siesta: Eions   =     16097.990269
siesta: Ena     =      3565.137544
siesta: Ekin    =      5428.893495
siesta: Enl     =       376.535226
siesta: DEna    =        -0.000007
siesta: DUscf   =         0.000000
siesta: DUext   =         0.000000
siesta: Exc     =     -3984.020425
siesta: eta*DQ  =         0.000000
siesta: Emadel  =         0.000000
siesta: Emeta   =         0.000000
siesta: Emolmec =         0.000000
siesta: Ekinion =         0.000000
siesta: Eharris =    -10628.444515
siesta: Etot    =    -10711.444436
siesta: FreeEng =    -10711.444436

siesta: iscf   Eharris(eV)      E_KS(eV)   FreeEng(eV)   dDmax  Ef(eV)
siesta:    1   -10628.4445   -10711.4444   -10711.4444  1.8490 -8.5539
timer: Routine,Calls,Time,% = IterSCF        1    8348.435  99.86
elaps: Routine,Calls,Wall,% = IterSCF        1    1045.316  99.86
siesta:    2   -10979.5652   -10501.9394   -10501.9610  0.8444 -1.2256
siesta:    3   -10624.7737   -10616.6867   -10616.6867  0.7975 -4.7447
siesta:    4   -10631.7200   -10613.8241   -10613.9281  0.7798 -4.5216
siesta:    5   -10631.7766   -10612.0306   -10612.0987  0.7552 -4.4729
siesta:    6   -10584.5737   -10590.8093   -10590.8734  0.2213 -5.2201
siesta:    7   -10584.4376   -10591.3267   -10591.4313  0.1794 -5.3144
siesta:    8   -10584.4509   -10591.3525   -10591.4571  0.1943 -5.3245
siesta:    9   -10584.4565   -10591.0457   -10591.1463  0.2086 -5.3051
siesta:   10   -10584.3424   -10590.3984   -10590.4931  0.1823 -5.2945
siesta:   11   -10583.7932   -10590.2378   -10590.3458  0.1159 -5.6999
siesta:   12   -10583.8499   -10589.5445   -10589.6490  0.0894 -5.6382
siesta:   13   -10583.8197   -10588.4022   -10588.5131  0.0668 -5.6751
siesta:   14   -10583.7502   -10582.7270   -10582.8364  0.0164 -5.7935
siesta:   15   -10583.7339   -10582.5800   -10582.6777  0.0199 -5.8120
siesta:   16   -10583.7209   -10582.5943   -10582.6893  0.0107 -5.8097
siesta:   17   -10583.7173   -10582.6035   -10582.6986  0.0065 -5.8081
siesta:   18   -10583.7177   -10582.7450   -10582.8400  0.0048 -5.8093
siesta:   19   -10583.7165   -10583.0163   -10583.1107  0.0047 -5.8082
siesta:   20   -10583.7164   -10583.1159   -10583.2106  0.0043 -5.8081
siesta:   21   -10583.7163   -10583.2658   -10583.3605  0.0032 -5.8099
siesta:   22   -10583.7161   -10583.5884   -10583.6829  0.0009 -5.8103
siesta:   23   -10583.7158   -10583.6245   -10583.7195  0.0007 -5.8090
siesta:   24   -10583.7157   -10583.6397   -10583.7348  0.0004 -5.8096
siesta:   25   -10583.7156   -10583.6659   -10583.7609  0.0005 -5.8101
siesta:   26   -10583.7157   -10583.6777   -10583.7727  0.0003 -5.8105
siesta:   27   -10583.7156   -10583.6849   -10583.7798  0.0002 -5.8103
siesta:   28   -10583.7156   -10583.6908   -10583.7858  0.0001 -5.8103
siesta:   29   -10583.7156   -10583.6994   -10583.7944  0.0001 -5.8103

siesta: E_KS(eV) =           -10583.7115

siesta: E_KS - E_eggbox =    -10583.7115

siesta: Atomic forces (eV/Ang):
----------------------------------------
   Tot    0.233772   -0.068404    0.000000
----------------------------------------
   Max    4.317658
   Res    1.673234    sqrt( Sum f_i^2 / 3N )
----------------------------------------
   Max    4.317658    constrained

Stress-tensor-Voigt (kbar):     -184.30     -182.59       -0.47       -0.87        0.00        0.00
(Free)E + p*V (eV/cell)   -10439.1081
Target enthalpy (eV/cell)   -10583.8065

siesta: Stress tensor (static) (eV/Ang**3):
        -0.115031   -0.000546    0.000000
        -0.000546   -0.113965    0.000000
         0.000000    0.000000   -0.000293

siesta: Pressure (static):        122.45485366  kBar

siesta: Stress tensor (total) (eV/Ang**3):
        -0.115031   -0.000546    0.000000
        -0.000546   -0.113965    0.000000
         0.000000    0.000000   -0.000293

siesta: Pressure (total):        122.45485366  kBar

siesta: Temp_ion =       0.000 K

* Maximum dynamic memory allocated =   234 MB

siesta: Program's energy decomposition (eV):
siesta: Ebs     =     -3541.694784
siesta: Eions   =     16097.990269
siesta: Ena     =      3565.137544
siesta: Ekin    =      6928.771707
siesta: Enl     =      -577.518220
siesta: DEna    =      -346.470491
siesta: DUscf   =        36.670371
siesta: DUext   =         0.000000
siesta: Exc     =     -4092.312140
siesta: eta*DQ  =         0.000000
siesta: Emadel  =         0.000000
siesta: Emeta   =         0.000000
siesta: Emolmec =         0.000000
siesta: Ekinion =         0.000000
siesta: Eharris =    -10583.715646
siesta: Etot    =    -10583.711498
siesta: FreeEng =    -10583.806464

siesta: Final energy (eV):
siesta:  Band Struct. =   -3541.694784
siesta:       Kinetic =    6928.771707
siesta:       Hartree =   20293.254741
siesta:    Ext. field =       0.000000
siesta:   Exch.-corr. =   -4092.312140
siesta:  Ion-electron =  -46902.603296
siesta:       Ion-ion =   13189.177490
siesta:       Ekinion =       0.000000
siesta:         Total =  -10583.711498

siesta: Atomic forces (eV/Ang):
siesta:      1   -3.129806   -1.823152    0.000000
siesta:      2    0.684362   -0.756625    0.000000
siesta:      3    0.000799   -3.582696    0.000000
siesta:      4   -0.968429   -0.227757    0.000000
siesta:      5    0.691389    0.745785    0.000000
siesta:      6   -0.296815    0.949179    0.000000
siesta:      7   -3.098811    1.786661    0.000000
siesta:      8   -0.301035    0.953600    0.000000
siesta:      9   -3.119111    1.810685    0.000000
siesta:     10    3.121773   -1.819964    0.000000
siesta:     11    0.307371   -0.961594    0.000000
siesta:     12   -0.962158   -0.244768    0.000000
siesta:     13    0.712528    0.737068    0.000000
siesta:     14   -0.005363    3.566009    0.000000
siesta:     15   -0.686715    0.742960    0.000000
siesta:     16    0.994905   -0.243426    0.000000
siesta:     17   -0.294524   -0.960788    0.000000
siesta:     18    3.119622    1.792660    0.000000
siesta:     19    0.313104    0.950400    0.000000
siesta:     20   -0.954035    0.209126    0.000000
siesta:     21    0.646137   -0.744455    0.000000
siesta:     22   -0.018768   -3.582164    0.000000
siesta:     23   -0.669755   -0.749291    0.000000
siesta:     24    0.979736    0.216942    0.000000
siesta:     25   -0.004670    3.585327    0.000000
siesta:     26   -0.680463    0.749362    0.000000
siesta:     27    0.986230   -0.224303    0.000000
siesta:     28   -0.305504   -0.954946    0.000000
siesta:     29   -3.104465   -1.809116    0.000000
siesta:     30   -0.684199   -0.746461    0.000000
siesta:     31    0.976391    0.217502    0.000000
siesta:     32   -0.293488    0.950824    0.000000
siesta:     33   -3.089221    1.773527    0.000000
siesta:     34    3.114742   -1.785002    0.000000
siesta:     35    0.302452   -0.960509    0.000000
siesta:     36   -0.962698   -0.225970    0.000000
siesta:     37    0.714727    0.740684    0.000000
siesta:     38    0.329162    0.951082    0.000000
siesta:     39   -0.944232    0.231451    0.000000
siesta:     40    0.643894   -0.741733    0.000000
siesta:     41   -0.005929   -3.556296    0.000000
siesta:     42    3.124199   -1.793874    0.000000
siesta:     43    0.306475   -0.957950    0.000000
siesta:     44    3.115456    1.794452    0.000000
siesta:     45   -0.007171    3.588959    0.000000
siesta:     46   -0.684544    0.749016    0.000000
siesta:     47    0.308562    0.950471    0.000000
siesta:     48   -0.981634    0.218797    0.000000
siesta:     49    0.985997   -0.225656    0.000000
siesta:     50   -0.303124   -0.954684    0.000000
siesta:     51   -0.673823   -0.748324    0.000000
siesta:     52    0.979758    0.237421    0.000000
siesta:     53   -3.109285   -1.807100    0.000000
siesta:     54    3.089311    1.820455    0.000000
siesta:     55   -3.759775   -2.173908    0.000000
siesta:     56   -3.711573    2.187607    0.000000
siesta:     57    0.004886    4.303847    0.000000
siesta:     58    0.035504   -4.292978    0.000000
siesta:     59    3.718160   -2.178649    0.000000
siesta:     60    0.005827   -4.317658    0.000000
siesta:     61    3.742305   -2.172354    0.000000
siesta:     62   -3.748301    2.185746    0.000000
siesta:     63   -0.004844    4.306500    0.000000
siesta:     64    3.764969    2.173006    0.000000
siesta:     65   -3.753007   -2.197927    0.000000
siesta:     66   -0.002412   -4.263486    0.000000
siesta:     67    3.718454   -2.174748    0.000000
siesta:     68   -3.731062    2.198441    0.000000
siesta:     69   -0.030720    4.305490    0.000000
siesta:     70    3.783834    2.175316    0.000000
siesta:     71   -3.774533   -2.168958    0.000000
siesta:     72    3.766749    2.204510    0.000000
siesta: ----------------------------------------
siesta:    Tot    0.233772   -0.068404    0.000000

siesta: Stress tensor (static) (eV/Ang**3):
siesta:    -0.115031   -0.000546    0.000000
siesta:    -0.000546   -0.113965    0.000000
siesta:     0.000000    0.000000   -0.000293

siesta: Cell volume =       1893.226895 Ang**3

siesta: Pressure (static):
siesta:                Solid            Molecule  Units
siesta:           0.00083241          0.00059539  Ry/Bohr**3
siesta:           0.07642948          0.05466633  eV/Ang**3
siesta:         122.45485366         87.58606412  kBar
(Free)E+ p_basis*V_orbitals  =      -10547.381685
(Free)Eharris+ p_basis*V_orbitals  =      -10547.397918

siesta: Electric dipole (a.u.)  =    0.000000    0.000000    0.000000
siesta: Electric dipole (Debye) =    0.000000    0.000000    0.000000

* Maximum dynamic memory allocated : Node    0 =   234 MB
* Maximum dynamic memory allocated : Node    1 =    85 MB
* Maximum dynamic memory allocated : Node    2 =    88 MB
* Maximum dynamic memory allocated : Node    3 =   222 MB
* Maximum dynamic memory allocated : Node    4 =   234 MB
* Maximum dynamic memory allocated : Node    5 =    85 MB
* Maximum dynamic memory allocated : Node    6 =    88 MB
* Maximum dynamic memory allocated : Node    7 =   216 MB

* Maximum memory occured during matrixMtoO                    

timer: CPU execution times:
timer:  Routine       Calls   Time/call    Tot.time        %
timer:  siesta            1  239369.355  239369.355   100.00
timer:  Setup             1       3.083       3.083     0.00
timer:  bands             1       0.011       0.011     0.00
timer:  writewave         1       0.018       0.018     0.00
timer:  KSV_init          1       0.002       0.002     0.00
timer:  IterMD            1  239358.139  239358.139   100.00
timer:  hsparse           1       0.402       0.402     0.00
timer:  overlap           1       7.773       7.773     0.00
timer:  IterSCF          29    8246.300  239142.687    99.91
timer:  kinefsm           2       4.021       8.042     0.00
timer:  nlefsm            2      20.876      41.752     0.02
timer:  DHSCF            30     117.854    3535.634     1.48
timer:  DHSCF1            1       1.043       1.043     0.00
timer:  DHSCF2            1      45.361      45.361     0.02
timer:  REORD           242       0.014       3.398     0.00
timer:  POISON           31       3.715     115.180     0.05
timer:  DHSCF3           30     114.841    3445.221     1.44
timer:  rhoofd           30      22.436     673.090     0.28
timer:  cellXC           30       3.522     105.647     0.04
timer:  vmat             30      59.325    1779.748     0.74
timer:  MolMec            2       0.000       0.000     0.00
timer:  diagon           29    8127.079  235685.287    98.46
timer:  c-eigval      10208       7.215   73652.520    30.77
timer:  c-buildHS     10208       0.215    2194.342     0.92
timer:  cdiag         20416       7.410  151291.164    63.20
timer:  cdiag1        20416       0.462    9438.046     3.94
timer:  cdiag2        20416       1.974   40306.471    16.84
timer:  cdiag3        20416       4.157   84871.296    35.46
timer:  cdiag4        20416       0.272    5558.196     2.32
timer:  c-eigvec      10208       7.913   80772.326    33.74
timer:  c-buildD      10208       7.948   81138.010    33.90
timer:  DHSCF4            1      41.266      41.266     0.02
timer:  dfscf             1      38.643      38.643     0.02
timer:  overfsm           1       0.463       0.463     0.00
timer:  optical           1       7.115       7.115     0.00
  

elaps: ELAPSED times:
elaps:  Routine       Calls   Time/call    Tot.time        %
elaps:  siesta            1   29970.136   29970.136   100.00
elaps:  Setup             1       0.385       0.385     0.00
elaps:  bands             1       0.001       0.001     0.00
elaps:  writewave         1       0.002       0.002     0.00
elaps:  KSV_init          1       0.000       0.000     0.00
elaps:  IterMD            1   29968.733   29968.733   100.00
elaps:  hsparse           1       0.049       0.049     0.00
elaps:  overlap           1       0.983       0.983     0.00
elaps:  IterSCF          29    1032.475   29941.778    99.91
elaps:  kinefsm           2       0.508       1.016     0.00
elaps:  nlefsm            2       2.662       5.324     0.02
elaps:  DHSCF            30      14.880     446.401     1.49
elaps:  DHSCF1            1       0.133       0.133     0.00
elaps:  DHSCF2            1       5.676       5.676     0.02
elaps:  REORD           242       0.002       0.477     0.00
elaps:  POISON           31       0.465      14.413     0.05
elaps:  DHSCF3           30      14.367     431.021     1.44
elaps:  rhoofd           30       4.799     143.956     0.48
elaps:  cellXC           30       0.439      13.167     0.04
elaps:  vmat             30       7.421     222.642     0.74
elaps:  MolMec            2       0.000       0.000     0.00
elaps:  diagon           29    1017.592   29510.162    98.47
elaps:  c-eigval      10208       0.903    9216.348    30.75
elaps:  c-buildHS     10208       0.028     289.514     0.97
elaps:  cdiag         20416       0.909   18548.784    61.89
elaps:  cdiag1        20416       0.058    1176.813     3.93
elaps:  cdiag2        20416       0.247    5043.366    16.83
elaps:  cdiag3        20416       0.521   10635.998    35.49
elaps:  cdiag4        20416       0.034     699.699     2.33
elaps:  c-eigvec      10208       0.955    9751.436    32.54
elaps:  c-buildD      10208       1.031   10525.797    35.12
elaps:  DHSCF4            1       9.193       9.193     0.03
elaps:  dfscf             1       8.684       8.684     0.03
elaps:  overfsm           1       0.058       0.058     0.00
elaps:  optical           1       0.000       0.000     0.00
  
>> End of run:   4-DEC-2015   5:29:09
