Siesta Version:                                        siesta-3.2-pl-3
Architecture  : x86_64-unknown-linux-gnu--unknown
Compiler flags: mpiifort -g -O2 -fPIC -xSSE4.1 -fp-model source -shared-intel 
PARALLEL version

* Running on    8 nodes in parallel
>> Start of run:  30-NOV-2015  21:05:02

                           ***********************       
                           *  WELCOME TO SIESTA  *       
                           ***********************       

reinit: Reading from standard input
************************** Dump of input data file ****************************
#(1) General system descriptors
SystemName            GRP_doping    # Descriptive name of the system
SystemLabel           GRP_doping    # Short name for naming files
%include STRUCT.fdf
%include KPT.fdf
%include BASIS.fdf
#%include TS.fdf # for transiesta calculation
#(4) DFT, Grid, SCF
XC.functional         GGA           # LDA or GGA (default = LDA)
XC.authors            PBE           # CA (Ceperley-Aldr) = PZ
                                    #    (Perdew-Zunger) - LDA - Default
                                    # PW92 (Perdew-Wang-92) - LDA
                                    # PBE (Perdew-Burke-Ernzerhof) - GGA
MeshCutoff            200.000000    Ry      # Default: 50.0 Ry ~ 0.444 Bohr
                                    #         100.0 Ry ~ 0.314 Bohr
MaxSCFIterations      500           # Default: 50
DM.MixingWeight       0.05          # Default: 0.25
DM.NumberPulay        10            # Default: 0
DM.PulayOnFile        F             # SystemLabel.P1, SystemLabel.P2
DM.Tolerance          1.d-4         # Default: 1.d-4
DM.UseSaveDM          .true.        # because of the bug
SCFMustConverge       .true.
NeglNonOverlapInt     F             # Default: F
#(5) Eigenvalue problem: order-N or diagonalization
SolutionMethod        Diagon        # or Transiesta
ElectronicTemperature 300.0 K       # Default: 300.0 K
#(6) Molecular dynamics and relaxations
#MD.TypeOfRun          CG            # Type of dynamics:
#MD.VariableCell       F
#MD.NumCGsteps         0           # 0 for single-point / 100 for gopt
#MD.MaxCGDispl         0.2 Bohr      # Default: 0.2 Bohr
#MD.MaxForceTol        0.02 eV/Ang   # Default: 0.04 eV/Ang
#MD.MaxStressTol       1.0 GPa       # Default: 1.0 GPa
# Geometry Constraints
#%block GeometryConstraints
#	position from 1 to 44
#%endblock GeometryConstraints
************************** End of input data file *****************************

reinit: -----------------------------------------------------------------------
reinit: System Name: GRP_doping
reinit: -----------------------------------------------------------------------
reinit: System Label: GRP_doping                                                  
reinit: -----------------------------------------------------------------------

initatom: Reading input for the pseudopotentials and atomic orbitals ----------
 Species number:            1  Label: C Atomic number:           6
 Species number:            2  Label: B Atomic number:           5
Ground state valence configuration:   2s02  2p02
Reading pseudopotential information in formatted form from C.psf

Valence configuration for pseudopotential generation:
2s( 2.00) rc: 1.54
2p( 2.00) rc: 1.54
3d( 0.00) rc: 1.54
4f( 0.00) rc: 1.54
Ground state valence configuration:   2s02  2p01
Reading pseudopotential information in formatted form from B.psf

Valence configuration for pseudopotential generation:
2s( 2.00) rc: 1.74
2p( 1.00) rc: 1.74
3d( 0.00) rc: 1.74
4f( 0.00) rc: 1.74
For C, standard SIESTA heuristics set lmxkb to 3
 (one more than the basis l, including polarization orbitals).
Use PS.lmax or PS.KBprojectors blocks to override.
For B, standard SIESTA heuristics set lmxkb to 3
 (one more than the basis l, including polarization orbitals).
Use PS.lmax or PS.KBprojectors blocks to override.

<basis_specs>
===============================================================================
C                    Z=   6    Mass=  12.010        Charge= 0.17977+309
Lmxo=1 Lmxkb= 3    BasisType=split      Semic=F
L=0  Nsemic=0  Cnfigmx=2
          n=1  nzeta=2  polorb=0
            splnorm:   0.15000    
               vcte:    0.0000    
               rinn:    0.0000    
                rcs:    0.0000      0.0000    
            lambdas:    1.0000      1.0000    
L=1  Nsemic=0  Cnfigmx=2
          n=1  nzeta=2  polorb=1
            splnorm:   0.15000    
               vcte:    0.0000    
               rinn:    0.0000    
                rcs:    0.0000      0.0000    
            lambdas:    1.0000      1.0000    
-------------------------------------------------------------------------------
L=0  Nkbl=1  erefs: 0.17977+309
L=1  Nkbl=1  erefs: 0.17977+309
L=2  Nkbl=1  erefs: 0.17977+309
L=3  Nkbl=1  erefs: 0.17977+309
===============================================================================
</basis_specs>

atom: Called for C                     (Z =   6)

read_vps: Pseudopotential generation method:
read_vps: ATM3      Troullier-Martins                       
Total valence charge:    4.00000

read_vps: Pseudopotential includes a core correction:
read_vps: Pseudo-core for xc-correction

xc_check: Exchange-correlation functional:
xc_check: GGA Perdew, Burke & Ernzerhof 1996
V l=0 = -2*Zval/r beyond r=  1.5227
V l=1 = -2*Zval/r beyond r=  1.5227
V l=2 = -2*Zval/r beyond r=  1.5227
V l=3 = -2*Zval/r beyond r=  1.5038
All V_l potentials equal beyond r=  1.5227
This should be close to max(r_c) in ps generation
All pots = -2*Zval/r beyond r=  1.5227

VLOCAL1: 99.0% of the norm of Vloc inside     18.722 Ry
VLOCAL1: 99.9% of the norm of Vloc inside     42.668 Ry
atom: Maximum radius for 4*pi*r*r*local-pseudopot. charge    1.83678
atom: Maximum radius for r*vlocal+2*Zval:    1.58088
GHOST: No ghost state for L =  0
GHOST: No ghost state for L =  1
GHOST: No ghost state for L =  2
GHOST: No ghost state for L =  3

KBgen: Kleinman-Bylander projectors: 
   l= 0   rc=  1.704034   el= -1.009801   Ekb=  5.335044   kbcos=  0.316824
   l= 1   rc=  1.704034   el= -0.388707   Ekb= -3.785862   kbcos= -0.366464
   l= 2   rc=  1.791422   el=  0.001971   Ekb= -0.970471   kbcos= -0.009212
   l= 3   rc=  1.859892   el=  0.003065   Ekb= -0.399525   kbcos= -0.001223

KBgen: Total number of  Kleinman-Bylander projectors:   16
atom: -------------------------------------------------------------------------

atom: SANKEY-TYPE ORBITALS:
atom: Selected multiple-zeta basis: split     

SPLIT: Orbitals with angular momentum L= 0

SPLIT: Basis orbitals for state 2s

SPLIT: PAO cut-off radius determined from an
SPLIT: energy shift=  0.007350 Ry

   izeta = 1
                 lambda =    1.000000
                     rc =    4.632753
                 energy =   -1.002270
                kinetic =    0.855760
    potential(screened) =   -1.858031
       potential(ionic) =   -5.417575

   izeta = 2
                 rmatch =    3.431921
              splitnorm =    0.150000
                 energy =   -0.867111
                kinetic =    1.300804
    potential(screened) =   -2.167915
       potential(ionic) =   -5.962684

SPLIT: Orbitals with angular momentum L= 1

SPLIT: Basis orbitals for state 2p

SPLIT: PAO cut-off radius determined from an
SPLIT: energy shift=  0.007350 Ry

   izeta = 1
                 lambda =    1.000000
                     rc =    5.658549
                 energy =   -0.381140
                kinetic =    2.399701
    potential(screened) =   -2.780841
       potential(ionic) =   -6.206085

   izeta = 2
                 rmatch =    3.653288
              splitnorm =    0.150000
                 energy =   -0.249149
                kinetic =    3.542762
    potential(screened) =   -3.791911
       potential(ionic) =   -7.581078

POLgen: Perturbative polarization orbital with L=  2

POLgen: Polarization orbital for state 2p

   izeta = 1
                     rc =    5.658549
                 energy =    1.109913
                kinetic =    2.304789
    potential(screened) =   -1.194876
       potential(ionic) =   -4.013592
atom: Total number of Sankey-type orbitals: 13

atm_pop: Valence configuration (for local Pseudopot. screening):
 2s( 2.00)                                                            
 2p( 2.00)                                                            
Vna: chval, zval:    4.00000   4.00000

Vna:  Cut-off radius for the neutral-atom potential:   5.658549
comcore: Pseudo-core radius Rcore=  1.791422

atom: _________________________________________________________________________

<basis_specs>
===============================================================================
B                    Z=   5    Mass=  10.810        Charge= 0.17977+309
Lmxo=1 Lmxkb= 3    BasisType=split      Semic=F
L=0  Nsemic=0  Cnfigmx=2
          n=1  nzeta=2  polorb=0
            splnorm:   0.15000    
               vcte:    0.0000    
               rinn:    0.0000    
                rcs:    0.0000      0.0000    
            lambdas:    1.0000      1.0000    
L=1  Nsemic=0  Cnfigmx=2
          n=1  nzeta=2  polorb=1
            splnorm:   0.15000    
               vcte:    0.0000    
               rinn:    0.0000    
                rcs:    0.0000      0.0000    
            lambdas:    1.0000      1.0000    
-------------------------------------------------------------------------------
L=0  Nkbl=1  erefs: 0.17977+309
L=1  Nkbl=1  erefs: 0.17977+309
L=2  Nkbl=1  erefs: 0.17977+309
L=3  Nkbl=1  erefs: 0.17977+309
===============================================================================
</basis_specs>

atom: Called for B                     (Z =   5)

read_vps: Pseudopotential generation method:
read_vps: ATM3      Troullier-Martins                       
Total valence charge:    3.00000

read_vps: Pseudopotential includes a core correction:
read_vps: Pseudo-core for xc-correction

xc_check: Exchange-correlation functional:
xc_check: GGA Perdew, Burke & Ernzerhof 1996
V l=0 = -2*Zval/r beyond r=  1.7165
V l=1 = -2*Zval/r beyond r=  1.7165
V l=2 = -2*Zval/r beyond r=  1.7165
V l=3 = -2*Zval/r beyond r=  1.6951
All V_l potentials equal beyond r=  1.7165
This should be close to max(r_c) in ps generation
All pots = -2*Zval/r beyond r=  1.7165

VLOCAL1: 99.0% of the norm of Vloc inside     14.733 Ry
VLOCAL1: 99.9% of the norm of Vloc inside     33.577 Ry
atom: Maximum radius for 4*pi*r*r*local-pseudopot. charge    2.04484
atom: Maximum radius for r*vlocal+2*Zval:    1.75994
GHOST: No ghost state for L =  0
GHOST: No ghost state for L =  1
GHOST: No ghost state for L =  2
GHOST: No ghost state for L =  3

KBgen: Kleinman-Bylander projectors: 
   l= 0   rc=  1.897051   el= -0.693730   Ekb=  4.595746   kbcos=  0.286105
   l= 1   rc=  1.920920   el= -0.265236   Ekb= -2.350715   kbcos= -0.315747
   l= 2   rc=  2.044840   el=  0.002055   Ekb= -0.690767   kbcos= -0.013822
   l= 3   rc=  2.149707   el=  0.003188   Ekb= -0.315358   kbcos= -0.002055

KBgen: Total number of  Kleinman-Bylander projectors:   16
atom: -------------------------------------------------------------------------

atom: SANKEY-TYPE ORBITALS:
atom: Selected multiple-zeta basis: split     

SPLIT: Orbitals with angular momentum L= 0

SPLIT: Basis orbitals for state 2s

SPLIT: PAO cut-off radius determined from an
SPLIT: energy shift=  0.007350 Ry

   izeta = 1
                 lambda =    1.000000
                     rc =    5.422032
                 energy =   -0.686029
                kinetic =    0.576707
    potential(screened) =   -1.262736
       potential(ionic) =   -3.271094

   izeta = 2
                 rmatch =    4.222573
              splitnorm =    0.150000
                 energy =   -0.602132
                kinetic =    0.858975
    potential(screened) =   -1.461107
       potential(ionic) =   -3.582536

SPLIT: Orbitals with angular momentum L= 1

SPLIT: Basis orbitals for state 2p

SPLIT: PAO cut-off radius determined from an
SPLIT: energy shift=  0.007350 Ry

   izeta = 1
                 lambda =    1.000000
                     rc =    6.790259
                 energy =   -0.258578
                kinetic =    1.481412
    potential(screened) =   -1.739989
       potential(ionic) =   -3.657461

   izeta = 2
                 rmatch =    4.608740
              splitnorm =    0.150000
                 energy =   -0.173757
                kinetic =    2.186690
    potential(screened) =   -2.360447
       potential(ionic) =   -4.464260

POLgen: Perturbative polarization orbital with L=  2

POLgen: Polarization orbital for state 2p

   izeta = 1
                     rc =    6.790259
                 energy =    0.684082
                kinetic =    1.471481
    potential(screened) =   -0.787399
       potential(ionic) =   -2.406985
atom: Total number of Sankey-type orbitals: 13

atm_pop: Valence configuration (for local Pseudopot. screening):
 2s( 2.00)                                                            
 2p( 1.00)                                                            
Vna: chval, zval:    3.00000   3.00000

Vna:  Cut-off radius for the neutral-atom potential:   6.790259
comcore: Pseudo-core radius Rcore=  2.122997

atom: _________________________________________________________________________

prinput: Basis input ----------------------------------------------------------

PAO.BasisType split     

%block ChemicalSpeciesLabel
    1    6 C                       # Species index, atomic number, species label
    2    5 B                       # Species index, atomic number, species label
%endblock ChemicalSpeciesLabel

%block PAO.Basis                 # Define Basis set
C                     2                    # Species label, number of l-shells
 n=2   0   2                         # n, l, Nzeta 
   4.633      3.432   
   1.000      1.000   
 n=2   1   2 P   1                   # n, l, Nzeta, Polarization, NzetaPol
   5.659      3.653   
   1.000      1.000   
B                     2                    # Species label, number of l-shells
 n=2   0   2                         # n, l, Nzeta 
   5.422      4.223   
   1.000      1.000   
 n=2   1   2 P   1                   # n, l, Nzeta, Polarization, NzetaPol
   6.790      4.609   
   1.000      1.000   
%endblock PAO.Basis

prinput: ----------------------------------------------------------------------

coor:   Atomic-coordinates input format  =     Cartesian coordinates
coor:                                          (in Angstroms)

siesta: Atomic coordinates (Bohr) and species
siesta:      2.23554   1.32097   0.00000  1        1
siesta:      4.56367   2.66461   0.00000  1        2
siesta:     32.50328  21.48508   0.00000  1        3
siesta:     34.83141  22.82873   0.00000  1        4
siesta:     37.15930  18.79590   0.00000  1        5
siesta:     32.50291  13.41944   0.00000  1        6
siesta:     34.83104  14.76308   0.00000  1        7
siesta:     30.17465   9.38661   0.00000  1        8
siesta:     32.50278  10.73026   0.00000  1        9
siesta:     27.84639   5.35379   0.00000  1       10
siesta:     30.17453   6.69743   0.00000  1       11
siesta:     27.84714  21.48508   0.00000  1       12
siesta:     30.17527  22.82873   0.00000  1       13
siesta:      6.89168   1.32097   0.00000  1       14
siesta:      9.21981   2.66461   0.00000  1       15
siesta:     13.87595   2.66461   0.00000  1       16
siesta:     16.20396   1.32097   0.00000  1       17
siesta:     18.53210   2.66461   0.00000  1       18
siesta:     23.19013   2.66461   0.00000  1       19
siesta:     25.51813   1.32097   0.00000  1       20
siesta:     27.84627   2.66461   0.00000  1       21
siesta:      6.89193   6.69743   0.00000  1       22
siesta:      9.21994   5.35379   0.00000  1       23
siesta:     11.54807   6.69743   0.00000  1       24
siesta:     13.87608   5.35379   0.00000  1       25
siesta:     16.20421   6.69743   0.00000  1       26
siesta:     18.53411   5.35379   0.00000  1       27
siesta:     20.86224   6.69743   0.00000  1       28
siesta:     23.19025   5.35379   0.00000  1       29
siesta:     25.51838   6.69743   0.00000  1       30
siesta:      9.22019  10.73026   0.00000  1       31
siesta:     11.54820   9.38661   0.00000  1       32
siesta:     13.87633  10.73026   0.00000  1       33
siesta:     18.53247  10.73026   0.00000  1       34
siesta:     20.86237   9.38661   0.00000  1       35
siesta:     23.19050  10.73026   0.00000  1       36
siesta:      9.22031  13.41944   0.00000  1       37
siesta:     11.54845  14.76308   0.00000  1       38
siesta:     13.87645  13.41944   0.00000  1       39
siesta:     16.20459  14.76308   0.00000  1       40
siesta:     18.53448  13.41944   0.00000  1       41
siesta:     20.86262  14.76308   0.00000  1       42
siesta:     13.87670  18.79590   0.00000  1       43
siesta:     16.20471  17.45226   0.00000  1       44
siesta:     18.53284  18.79590   0.00000  1       45
siesta:     13.87683  21.48508   0.00000  1       46
siesta:     16.20496  22.82873   0.00000  1       47
siesta:     18.53486  21.48508   0.00000  1       48
siesta:     20.86299  22.82873   0.00000  1       49
siesta:     27.84664  10.73026   0.00000  1       50
siesta:     23.19063  13.41944   0.00000  1       51
siesta:     25.51876  14.76308   0.00000  1       52
siesta:     23.19088  18.79590   0.00000  1       53
siesta:     27.84677  13.41944   0.00000  1       54
siesta:     30.17490  14.76308   0.00000  1       55
siesta:     25.51888  17.45226   0.00000  1       56
siesta:     27.84702  18.79590   0.00000  1       57
siesta:     23.19100  21.48508   0.00000  1       58
siesta:     25.51913  22.82873   0.00000  1       59
siesta:     30.17503  17.45226   0.00000  1       60
siesta:     32.50316  18.79590   0.00000  1       61
siesta:     37.16131  21.48508   0.00000  1       62
siesta:     39.48945  22.82873   0.00000  1       63
siesta:     34.83116  17.45226   0.00000  2       64
siesta:     11.54782   1.32097   0.00000  2       65
siesta:     20.86199   1.32097   0.00000  2       66
siesta:      4.56380   5.35379   0.00000  2       67
siesta:      6.89205   9.38661   0.00000  2       68
siesta:     16.20434   9.38661   0.00000  2       69
siesta:     11.54857  17.45226   0.00000  2       70
siesta:     25.51851   9.38661   0.00000  2       71
siesta:     20.86274  17.45226   0.00000  2       72

siesta: System type = slab      

initatomlists: Number of atoms, orbitals, and projectors:     72   936  1152

siesta: ******************** Simulation parameters ****************************
siesta:
siesta: The following are some of the parameters of the simulation.
siesta: A complete list of the parameters used, including default values,
siesta: can be found in file out.fdf
siesta:
redata: Non-Collinear-spin run           =     F
redata: SpinPolarized (Up/Down) run      =     F
redata: Number of spin components        =     1
redata: Long output                      =     F
redata: Number of Atomic Species         =        2
redata: Charge density info will appear in .RHO file
redata: Write Mulliken Pop.              =     NO
redata: Mesh Cutoff                      =   200.0000  Ry
redata: Net charge of the system         =     0.0000 |e|
redata: Max. number of SCF Iter          =      500
redata: SCF convergence failure will abort job
redata: Performing Pulay mixing using    =    10 iterations
redata: Mix DM in first SCF step ?       =     F
redata: Write Pulay info on disk?        =     F
redata: Discard 1st Pulay DM after  kick =     F
redata: New DM Mixing Weight             =     0.0500
redata: New DM Occupancy tolerance       = 0.000000000001
redata: No kicks to SCF
redata: DM Mixing Weight for Kicks       =     0.5000
redata: DM Tolerance for SCF             =     0.000100
redata: Require Energy convergence for SCF =     F
redata: DM Energy tolerance for SCF      =     0.000100 eV
redata: Require Harris convergence for SCF =     F
redata: DM Harris energy tolerance for SCF =     0.000100 eV
redata: Using Saved Data (generic)   =     F
redata: Use continuation files for DM    =     T
redata: Neglect nonoverlap interactions  =     F
redata: Method of Calculation            =     Diagonalization
redata: Divide and Conquer               =     T
redata: Electronic Temperature           =     0.0019  Ry
redata: Fix the spin of the system       =     F
redata: Dynamics option                  =     Verlet MD run
redata: Initial MD time step             =        1
redata:   Final MD time step             =        1
redata: Length of MD time step           =     1.0000  fs
redata: Initial Temperature of MD run    =     0.0000  K
redata: Perform a MD quench              =     F
redata: ***********************************************************************
Total number of electrons:   279.000000
Total ionic charge:   279.000000

* ProcessorY, Blocksize:    2  24

k-point displ. along   1 input, could be:     0.00    0.50
k-point displ. along   2 input, could be:     0.00    0.50
 Kpoints in:          364 . Kpoints trimmed:          352

siesta: k-grid: Number of k-points =   352
siesta: k-grid: Cutoff (effective) =     5.000 Ang
siesta: k-grid: Supercell and displacements
siesta: k-grid:   26   0   0      0.000
siesta: k-grid:    0  26   0      0.000
siesta: k-grid:    0   0   1      0.000
Naive supercell factors:     2    2    2

superc: Internal auxiliary supercell:     2 x     2 x     2  =       8
superc: Number of atoms, orbitals, and projectors:    576   7488   9216

* Maximum dynamic memory allocated =     6 MB

siesta:                 ==============================
                            Begin MD step =      1
                        ==============================

superc: Internal auxiliary supercell:     2 x     2 x     2  =       8
superc: Number of atoms, orbitals, and projectors:    576   7488   9216

outcell: Unit cell vectors (Ang):
       14.785000    0.000000    0.000000
        7.393000   12.805052    0.000000
        0.000000    0.000000   10.000000

outcell: Cell vector modules (Ang)   :   14.785000   14.786000   10.000000
outcell: Cell angles (23,13,12) (deg):     90.0000     90.0000     60.0000
outcell: Cell volume (Ang**3)        :   1893.2269
New_DM. Step:     1
Initializing Density Matrix...

InitMesh: MESH =   120 x   120 x    90 =     1296000
InitMesh: Mesh cutoff (required, used) =   200.000   223.865 Ry

* Maximum dynamic memory allocated =   207 MB

stepf: Fermi-Dirac step function

siesta: Program's energy decomposition (eV):
siesta: Ebs     =     -4462.430143
siesta: Eions   =     17250.500670
siesta: Ena     =      3769.687889
siesta: Ekin    =      5903.534022
siesta: Enl     =       294.190217
siesta: DEna    =        -0.000010
siesta: DUscf   =         0.000000
siesta: DUext   =         0.000000
siesta: Exc     =     -3961.773465
siesta: eta*DQ  =         0.000000
siesta: Emadel  =         0.000000
siesta: Emeta   =         0.000000
siesta: Emolmec =         0.000000
siesta: Ekinion =         0.000000
siesta: Eharris =    -11173.402949
siesta: Etot    =    -11244.862017
siesta: FreeEng =    -11244.862017

siesta: iscf   Eharris(eV)      E_KS(eV)   FreeEng(eV)   dDmax  Ef(eV)
siesta:    1   -11173.4029   -11244.8620   -11244.8620  1.9094 -8.1320
timer: Routine,Calls,Time,% = IterSCF        1    6761.290  99.83
elaps: Routine,Calls,Wall,% = IterSCF        1     846.593  99.87
siesta:    2   -11200.1141   -11124.5820   -11124.6133  0.5303 -3.3496
siesta:    3   -11154.2012   -11161.6727   -11161.7301  0.4889 -5.3681
siesta:    4   -11150.6794   -11157.3792   -11157.4197  0.4109 -5.5174
siesta:    5   -11148.0872   -11152.6227   -11152.6455  0.3196 -5.5535
siesta:    6   -11148.7617   -11145.7274   -11145.7545  0.1437 -5.7826
siesta:    7   -11147.9404   -11144.0267   -11144.0588  0.0992 -5.8615
siesta:    8   -11146.2916   -11142.3113   -11142.3428  0.0494 -5.8772
siesta:    9   -11145.7296   -11142.1504   -11142.1805  0.0337 -5.9213
siesta:   10   -11145.1533   -11142.3674   -11142.4013  0.0150 -5.9727
siesta:   11   -11145.0535   -11142.7619   -11142.7962  0.0120 -5.9734
siesta:   12   -11145.0236   -11143.2539   -11143.2887  0.0082 -5.9796
siesta:   13   -11145.0208   -11143.5806   -11143.6157  0.0056 -5.9797
siesta:   14   -11145.0190   -11144.0928   -11144.1283  0.0038 -5.9732
siesta:   15   -11145.0195   -11144.4496   -11144.4853  0.0028 -5.9683
siesta:   16   -11145.0185   -11144.7820   -11144.8177  0.0010 -5.9672
siesta:   17   -11145.0181   -11144.9635   -11144.9990  0.0004 -5.9675
siesta:   18   -11145.0181   -11144.9867   -11145.0223  0.0003 -5.9675
siesta:   19   -11145.0181   -11145.0120   -11145.0475  0.0003 -5.9680
siesta:   20   -11145.0181   -11145.0120   -11145.0475  0.0001 -5.9680
siesta:   21   -11145.0181   -11145.0130   -11145.0485  0.0001 -5.9681
siesta:   22   -11145.0181   -11145.0150   -11145.0505  0.0001 -5.9682

siesta: E_KS(eV) =           -11145.0175

siesta: E_KS - E_eggbox =    -11145.0175

siesta: Atomic forces (eV/Ang):
----------------------------------------
   Tot    0.207843   -0.129411    0.000000
----------------------------------------
   Max    3.887364
   Res    1.203585    sqrt( Sum f_i^2 / 3N )
----------------------------------------
   Max    3.887364    constrained

Stress-tensor-Voigt (kbar):     -118.58     -118.91       -0.25        0.01        0.00        0.00
(Free)E + p*V (eV/cell)   -11051.4097
Target enthalpy (eV/cell)   -11145.0530

siesta: Stress tensor (static) (eV/Ang**3):
        -0.074012    0.000008    0.000000
         0.000008   -0.074217    0.000000
         0.000000    0.000000   -0.000157

siesta: Pressure (static):         79.24811365  kBar

siesta: Stress tensor (total) (eV/Ang**3):
        -0.074012    0.000008    0.000000
         0.000008   -0.074217    0.000000
         0.000000    0.000000   -0.000157

siesta: Pressure (total):         79.24811365  kBar

siesta: Temp_ion =       0.000 K

* Maximum dynamic memory allocated =   222 MB

siesta: Program's energy decomposition (eV):
siesta: Ebs     =     -3691.443850
siesta: Eions   =     17250.500670
siesta: Ena     =      3769.687889
siesta: Ekin    =      7407.260270
siesta: Enl     =      -691.955723
siesta: DEna    =      -342.217401
siesta: DUscf   =        36.454159
siesta: DUext   =         0.000000
siesta: Exc     =     -4073.745983
siesta: eta*DQ  =         0.000000
siesta: Emadel  =         0.000000
siesta: Emeta   =         0.000000
siesta: Emolmec =         0.000000
siesta: Ekinion =         0.000000
siesta: Eharris =    -11145.018083
siesta: Etot    =    -11145.017460
siesta: FreeEng =    -11145.052967

siesta: Final energy (eV):
siesta:  Band Struct. =   -3691.443850
siesta:       Kinetic =    7407.260270
siesta:       Hartree =   21694.152993
siesta:    Ext. field =       0.000000
siesta:   Exch.-corr. =   -4073.745983
siesta:  Ion-electron =  -50127.680572
siesta:       Ion-ion =   13954.995832
siesta:       Ekinion =       0.000000
siesta:         Total =  -11145.017460

siesta: Atomic forces (eV/Ang):
siesta:      1    0.543039   -0.432615    0.000000
siesta:      2   -0.422712   -3.887364    0.000000
siesta:      3   -0.389757   -0.623586    0.000000
siesta:      4    0.290860   -2.887300    0.000000
siesta:      5    0.194783    3.724024    0.000000
siesta:      6    0.185270   -0.672035    0.000000
siesta:      7   -0.463446   -3.315389    0.000000
siesta:      8   -0.713933    1.179190    0.000000
siesta:      9   -3.294397    1.942139    0.000000
siesta:     10   -0.293134    0.497973    0.000000
siesta:     11   -3.166688    1.195269    0.000000
siesta:     12   -0.261043   -0.318179    0.000000
siesta:     13    0.085158   -0.326613    0.000000
siesta:     14   -0.627673   -0.083198    0.000000
siesta:     15   -2.488569    1.553587    0.000000
siesta:     16    2.858804    1.508027    0.000000
siesta:     17   -0.087796    1.440025    0.000000
siesta:     18   -2.762643    1.484852    0.000000
siesta:     19    2.771145    1.767037    0.000000
siesta:     20    0.432370    0.453766    0.000000
siesta:     21    0.077709   -0.451633    0.000000
siesta:     22    3.166269   -1.658720    0.000000
siesta:     23   -0.875418    0.021898    0.000000
siesta:     24    0.202042   -0.081927    0.000000
siesta:     25    1.109385   -0.363928    0.000000
siesta:     26   -0.040216   -3.234441    0.000000
siesta:     27   -0.968630   -0.408380    0.000000
siesta:     28   -0.135102    0.009645    0.000000
siesta:     29    0.888216   -0.570926    0.000000
siesta:     30   -0.105058   -3.510761    0.000000
siesta:     31    2.871269    1.919306    0.000000
siesta:     32    0.187029    1.000997    0.000000
siesta:     33   -2.775227    1.406680    0.000000
siesta:     34    2.741218    1.512049    0.000000
siesta:     35   -0.193745    1.017354    0.000000
siesta:     36   -2.621546    1.659723    0.000000
siesta:     37    0.845585   -1.251276    0.000000
siesta:     38    0.175881   -3.422891    0.000000
siesta:     39   -0.960695   -0.470159    0.000000
siesta:     40    0.070553   -0.170084    0.000000
siesta:     41    0.726848   -0.552839    0.000000
siesta:     42    0.127897   -3.096395    0.000000
siesta:     43    3.144652    1.552735    0.000000
siesta:     44   -0.039992    1.230333    0.000000
siesta:     45   -2.807289    1.648724    0.000000
siesta:     46    0.418729   -0.215311    0.000000
siesta:     47   -0.175988    0.458245    0.000000
siesta:     48   -0.364940   -0.151415    0.000000
siesta:     49   -0.252197    0.266290    0.000000
siesta:     50    3.030692    1.505536    0.000000
siesta:     51   -1.202769   -0.656949    0.000000
siesta:     52    0.409806    0.324778    0.000000
siesta:     53    2.822116    1.851431    0.000000
siesta:     54    0.528592    0.180743    0.000000
siesta:     55   -0.438983    0.364186    0.000000
siesta:     56    0.115210    0.380590    0.000000
siesta:     57    0.237462   -0.386728    0.000000
siesta:     58    1.148756   -0.835355    0.000000
siesta:     59   -0.144158   -3.324902    0.000000
siesta:     60   -0.109306    0.575907    0.000000
siesta:     61   -3.512733    1.628816    0.000000
siesta:     62   -0.692294   -0.979697    0.000000
siesta:     63    0.306598    0.371677    0.000000
siesta:     64    0.054522    0.422193    0.000000
siesta:     65   -0.103833   -0.003818    0.000000
siesta:     66   -0.038674   -0.233803    0.000000
siesta:     67    0.339249   -0.120694    0.000000
siesta:     68    0.542915   -0.263958    0.000000
siesta:     69    0.001403    0.030536    0.000000
siesta:     70   -0.079686    0.598369    0.000000
siesta:     71    0.133568    0.136226    0.000000
siesta:     72    0.032510    0.013002    0.000000
siesta: ----------------------------------------
siesta:    Tot    0.207843   -0.129411    0.000000

siesta: Stress tensor (static) (eV/Ang**3):
siesta:    -0.074012    0.000008    0.000000
siesta:     0.000008   -0.074217    0.000000
siesta:     0.000000    0.000000   -0.000157

siesta: Cell volume =       1893.226895 Ang**3

siesta: Pressure (static):
siesta:                Solid            Molecule  Units
siesta:           0.00053871          0.00074858  Ry/Bohr**3
siesta:           0.04946225          0.06873193  eV/Ang**3
siesta:          79.24811365        110.12187565  kBar
(Free)E+ p_basis*V_orbitals  =      -11111.471768
(Free)Eharris+ p_basis*V_orbitals  =      -11111.474891

siesta: Electric dipole (a.u.)  =    0.000000    0.000000    0.000000
siesta: Electric dipole (Debye) =    0.000000    0.000000    0.000000

* Maximum dynamic memory allocated : Node    0 =   221 MB
* Maximum dynamic memory allocated : Node    1 =    80 MB
* Maximum dynamic memory allocated : Node    2 =    84 MB
* Maximum dynamic memory allocated : Node    3 =   211 MB
* Maximum dynamic memory allocated : Node    4 =   222 MB
* Maximum dynamic memory allocated : Node    5 =    80 MB
* Maximum dynamic memory allocated : Node    6 =    83 MB
* Maximum dynamic memory allocated : Node    7 =   204 MB

* Maximum memory occured during matrixMtoO                    

timer: CPU execution times:
timer:  Routine       Calls   Time/call    Tot.time        %
timer:  siesta            1  147040.333  147040.333   100.00
timer:  Setup             1       3.847       3.847     0.00
timer:  bands             1       0.017       0.017     0.00
timer:  writewave         1       0.042       0.042     0.00
timer:  KSV_init          1       0.005       0.005     0.00
timer:  IterMD            1  147028.560  147028.560    99.99
timer:  hsparse           1       0.393       0.393     0.00
timer:  overlap           1       6.385       6.385     0.00
timer:  IterSCF          22    6674.328  146835.217    99.86
timer:  kinefsm           2       3.313       6.626     0.00
timer:  nlefsm            2      20.076      40.152     0.03
timer:  DHSCF            23     106.928    2459.336     1.67
timer:  DHSCF1            1       1.002       1.002     0.00
timer:  DHSCF2            1      41.866      41.866     0.03
timer:  REORD           186       0.010       1.862     0.00
timer:  POISON           24       2.237      53.699     0.04
timer:  DHSCF3           23     103.387    2377.910     1.62
timer:  rhoofd           23      20.210     464.827     0.32
timer:  cellXC           23       3.480      80.049     0.05
timer:  vmat             23      52.224    1201.153     0.82
timer:  MolMec            2       0.000       0.001     0.00
timer:  diagon           22    6565.518  144441.389    98.23
timer:  c-eigval       7744       6.686   51772.621    35.21
timer:  c-buildHS      7744       0.123     951.668     0.65
timer:  cdiag         15488       6.884  106623.856    72.51
timer:  cdiag1        15488       0.427    6619.818     4.50
timer:  cdiag2        15488       1.904   29490.081    20.06
timer:  cdiag3        15488       3.953   61230.338    41.64
timer:  cdiag4        15488       0.228    3535.481     2.40
timer:  c-eigvec       7744       7.279   56366.634    38.33
timer:  c-buildD       7744       4.680   36238.322    24.65
timer:  DHSCF4            1      37.289      37.289     0.03
timer:  dfscf             1      34.707      34.707     0.02
timer:  overfsm           1       0.428       0.428     0.00
timer:  optical           1       6.971       6.971     0.00
  

elaps: ELAPSED times:
elaps:  Routine       Calls   Time/call    Tot.time        %
elaps:  siesta            1   18401.625   18401.625   100.00
elaps:  Setup             1       0.497       0.497     0.00
elaps:  bands             1       0.003       0.003     0.00
elaps:  writewave         1       0.006       0.006     0.00
elaps:  KSV_init          1       0.001       0.001     0.00
elaps:  IterMD            1   18400.129   18400.129    99.99
elaps:  hsparse           1       0.049       0.049     0.00
elaps:  overlap           1       0.528       0.528     0.00
elaps:  IterSCF          22     835.291   18376.407    99.86
elaps:  kinefsm           2       0.278       0.556     0.00
elaps:  nlefsm            2       2.577       5.155     0.03
elaps:  DHSCF            23      13.538     311.373     1.69
elaps:  DHSCF1            1       0.134       0.134     0.00
elaps:  DHSCF2            1       5.229       5.229     0.03
elaps:  REORD           186       0.001       0.240     0.00
elaps:  POISON           24       0.280       6.720     0.04
elaps:  DHSCF3           23      12.934     297.493     1.62
elaps:  rhoofd           23       4.266      98.110     0.53
elaps:  cellXC           23       0.435       9.997     0.05
elaps:  vmat             23       6.533     150.264     0.82
elaps:  MolMec            2       0.000       0.000     0.00
elaps:  diagon           22     821.668   18076.694    98.23
elaps:  c-eigval       7744       0.836    6477.589    35.20
elaps:  c-buildHS      7744       0.017     130.801     0.71
elaps:  cdiag         15488       0.850   13161.239    71.52
elaps:  cdiag1        15488       0.054     828.879     4.50
elaps:  cdiag2        15488       0.238    3690.006    20.05
elaps:  cdiag3        15488       0.495    7671.180    41.69
elaps:  cdiag4        15488       0.029     447.695     2.43
elaps:  c-eigvec       7744       0.892    6907.065    37.54
elaps:  c-buildD       7744       0.605    4683.151    25.45
elaps:  DHSCF4            1       8.347       8.347     0.05
elaps:  dfscf             1       7.842       7.842     0.04
elaps:  overfsm           1       0.052       0.052     0.00
elaps:  optical           1       0.001       0.001     0.00
  
>> End of run:   1-DEC-2015   2:11:44
