Siesta Version:                                        siesta-3.2-pl-3
Architecture  : x86_64-unknown-linux-gnu--unknown
Compiler flags: mpiifort -g -O2 -fPIC -xSSE4.1 -fp-model source -shared-intel 
PARALLEL version

* Running on    8 nodes in parallel
>> Start of run:  28-NOV-2015   2:40:02

                           ***********************       
                           *  WELCOME TO SIESTA  *       
                           ***********************       

reinit: Reading from standard input
************************** Dump of input data file ****************************
#(1) General system descriptors
SystemName            GRP_doping    # Descriptive name of the system
SystemLabel           GRP_doping    # Short name for naming files
%include STRUCT.fdf
%include KPT.fdf
%include BASIS.fdf
#%include TS.fdf # for transiesta calculation
#(4) DFT, Grid, SCF
XC.functional         GGA           # LDA or GGA (default = LDA)
XC.authors            PBE           # CA (Ceperley-Aldr) = PZ
                                    #    (Perdew-Zunger) - LDA - Default
                                    # PW92 (Perdew-Wang-92) - LDA
                                    # PBE (Perdew-Burke-Ernzerhof) - GGA
MeshCutoff            200.000000    Ry      # Default: 50.0 Ry ~ 0.444 Bohr
                                    #         100.0 Ry ~ 0.314 Bohr
MaxSCFIterations      500           # Default: 50
DM.MixingWeight       0.05          # Default: 0.25
DM.NumberPulay        10            # Default: 0
DM.PulayOnFile        F             # SystemLabel.P1, SystemLabel.P2
DM.Tolerance          1.d-4         # Default: 1.d-4
DM.UseSaveDM          .true.        # because of the bug
SCFMustConverge       .true.
NeglNonOverlapInt     F             # Default: F
#(5) Eigenvalue problem: order-N or diagonalization
SolutionMethod        Diagon        # or Transiesta
ElectronicTemperature 300.0 K       # Default: 300.0 K
#(6) Molecular dynamics and relaxations
#MD.TypeOfRun          CG            # Type of dynamics:
#MD.VariableCell       F
#MD.NumCGsteps         0           # 0 for single-point / 100 for gopt
#MD.MaxCGDispl         0.2 Bohr      # Default: 0.2 Bohr
#MD.MaxForceTol        0.02 eV/Ang   # Default: 0.04 eV/Ang
#MD.MaxStressTol       1.0 GPa       # Default: 1.0 GPa
# Geometry Constraints
#%block GeometryConstraints
#	position from 1 to 44
#%endblock GeometryConstraints
************************** End of input data file *****************************

reinit: -----------------------------------------------------------------------
reinit: System Name: GRP_doping
reinit: -----------------------------------------------------------------------
reinit: System Label: GRP_doping                                                  
reinit: -----------------------------------------------------------------------

initatom: Reading input for the pseudopotentials and atomic orbitals ----------
 Species number:            1  Label: C Atomic number:           6
 Species number:            2  Label: B Atomic number:           5
Ground state valence configuration:   2s02  2p02
Reading pseudopotential information in formatted form from C.psf

Valence configuration for pseudopotential generation:
2s( 2.00) rc: 1.54
2p( 2.00) rc: 1.54
3d( 0.00) rc: 1.54
4f( 0.00) rc: 1.54
Ground state valence configuration:   2s02  2p01
Reading pseudopotential information in formatted form from B.psf

Valence configuration for pseudopotential generation:
2s( 2.00) rc: 1.74
2p( 1.00) rc: 1.74
3d( 0.00) rc: 1.74
4f( 0.00) rc: 1.74
For C, standard SIESTA heuristics set lmxkb to 3
 (one more than the basis l, including polarization orbitals).
Use PS.lmax or PS.KBprojectors blocks to override.
For B, standard SIESTA heuristics set lmxkb to 3
 (one more than the basis l, including polarization orbitals).
Use PS.lmax or PS.KBprojectors blocks to override.

<basis_specs>
===============================================================================
C                    Z=   6    Mass=  12.010        Charge= 0.17977+309
Lmxo=1 Lmxkb= 3    BasisType=split      Semic=F
L=0  Nsemic=0  Cnfigmx=2
          n=1  nzeta=2  polorb=0
            splnorm:   0.15000    
               vcte:    0.0000    
               rinn:    0.0000    
                rcs:    0.0000      0.0000    
            lambdas:    1.0000      1.0000    
L=1  Nsemic=0  Cnfigmx=2
          n=1  nzeta=2  polorb=1
            splnorm:   0.15000    
               vcte:    0.0000    
               rinn:    0.0000    
                rcs:    0.0000      0.0000    
            lambdas:    1.0000      1.0000    
-------------------------------------------------------------------------------
L=0  Nkbl=1  erefs: 0.17977+309
L=1  Nkbl=1  erefs: 0.17977+309
L=2  Nkbl=1  erefs: 0.17977+309
L=3  Nkbl=1  erefs: 0.17977+309
===============================================================================
</basis_specs>

atom: Called for C                     (Z =   6)

read_vps: Pseudopotential generation method:
read_vps: ATM3      Troullier-Martins                       
Total valence charge:    4.00000

read_vps: Pseudopotential includes a core correction:
read_vps: Pseudo-core for xc-correction

xc_check: Exchange-correlation functional:
xc_check: GGA Perdew, Burke & Ernzerhof 1996
V l=0 = -2*Zval/r beyond r=  1.5227
V l=1 = -2*Zval/r beyond r=  1.5227
V l=2 = -2*Zval/r beyond r=  1.5227
V l=3 = -2*Zval/r beyond r=  1.5038
All V_l potentials equal beyond r=  1.5227
This should be close to max(r_c) in ps generation
All pots = -2*Zval/r beyond r=  1.5227

VLOCAL1: 99.0% of the norm of Vloc inside     18.722 Ry
VLOCAL1: 99.9% of the norm of Vloc inside     42.668 Ry
atom: Maximum radius for 4*pi*r*r*local-pseudopot. charge    1.83678
atom: Maximum radius for r*vlocal+2*Zval:    1.58088
GHOST: No ghost state for L =  0
GHOST: No ghost state for L =  1
GHOST: No ghost state for L =  2
GHOST: No ghost state for L =  3

KBgen: Kleinman-Bylander projectors: 
   l= 0   rc=  1.704034   el= -1.009801   Ekb=  5.335044   kbcos=  0.316824
   l= 1   rc=  1.704034   el= -0.388707   Ekb= -3.785862   kbcos= -0.366464
   l= 2   rc=  1.791422   el=  0.001971   Ekb= -0.970471   kbcos= -0.009212
   l= 3   rc=  1.859892   el=  0.003065   Ekb= -0.399525   kbcos= -0.001223

KBgen: Total number of  Kleinman-Bylander projectors:   16
atom: -------------------------------------------------------------------------

atom: SANKEY-TYPE ORBITALS:
atom: Selected multiple-zeta basis: split     

SPLIT: Orbitals with angular momentum L= 0

SPLIT: Basis orbitals for state 2s

SPLIT: PAO cut-off radius determined from an
SPLIT: energy shift=  0.007350 Ry

   izeta = 1
                 lambda =    1.000000
                     rc =    4.632753
                 energy =   -1.002270
                kinetic =    0.855760
    potential(screened) =   -1.858031
       potential(ionic) =   -5.417575

   izeta = 2
                 rmatch =    3.431921
              splitnorm =    0.150000
                 energy =   -0.867111
                kinetic =    1.300804
    potential(screened) =   -2.167915
       potential(ionic) =   -5.962684

SPLIT: Orbitals with angular momentum L= 1

SPLIT: Basis orbitals for state 2p

SPLIT: PAO cut-off radius determined from an
SPLIT: energy shift=  0.007350 Ry

   izeta = 1
                 lambda =    1.000000
                     rc =    5.658549
                 energy =   -0.381140
                kinetic =    2.399701
    potential(screened) =   -2.780841
       potential(ionic) =   -6.206085

   izeta = 2
                 rmatch =    3.653288
              splitnorm =    0.150000
                 energy =   -0.249149
                kinetic =    3.542762
    potential(screened) =   -3.791911
       potential(ionic) =   -7.581078

POLgen: Perturbative polarization orbital with L=  2

POLgen: Polarization orbital for state 2p

   izeta = 1
                     rc =    5.658549
                 energy =    1.109913
                kinetic =    2.304789
    potential(screened) =   -1.194876
       potential(ionic) =   -4.013592
atom: Total number of Sankey-type orbitals: 13

atm_pop: Valence configuration (for local Pseudopot. screening):
 2s( 2.00)                                                            
 2p( 2.00)                                                            
Vna: chval, zval:    4.00000   4.00000

Vna:  Cut-off radius for the neutral-atom potential:   5.658549
comcore: Pseudo-core radius Rcore=  1.791422

atom: _________________________________________________________________________

<basis_specs>
===============================================================================
B                    Z=   5    Mass=  10.810        Charge= 0.17977+309
Lmxo=1 Lmxkb= 3    BasisType=split      Semic=F
L=0  Nsemic=0  Cnfigmx=2
          n=1  nzeta=2  polorb=0
            splnorm:   0.15000    
               vcte:    0.0000    
               rinn:    0.0000    
                rcs:    0.0000      0.0000    
            lambdas:    1.0000      1.0000    
L=1  Nsemic=0  Cnfigmx=2
          n=1  nzeta=2  polorb=1
            splnorm:   0.15000    
               vcte:    0.0000    
               rinn:    0.0000    
                rcs:    0.0000      0.0000    
            lambdas:    1.0000      1.0000    
-------------------------------------------------------------------------------
L=0  Nkbl=1  erefs: 0.17977+309
L=1  Nkbl=1  erefs: 0.17977+309
L=2  Nkbl=1  erefs: 0.17977+309
L=3  Nkbl=1  erefs: 0.17977+309
===============================================================================
</basis_specs>

atom: Called for B                     (Z =   5)

read_vps: Pseudopotential generation method:
read_vps: ATM3      Troullier-Martins                       
Total valence charge:    3.00000

read_vps: Pseudopotential includes a core correction:
read_vps: Pseudo-core for xc-correction

xc_check: Exchange-correlation functional:
xc_check: GGA Perdew, Burke & Ernzerhof 1996
V l=0 = -2*Zval/r beyond r=  1.7165
V l=1 = -2*Zval/r beyond r=  1.7165
V l=2 = -2*Zval/r beyond r=  1.7165
V l=3 = -2*Zval/r beyond r=  1.6951
All V_l potentials equal beyond r=  1.7165
This should be close to max(r_c) in ps generation
All pots = -2*Zval/r beyond r=  1.7165

VLOCAL1: 99.0% of the norm of Vloc inside     14.733 Ry
VLOCAL1: 99.9% of the norm of Vloc inside     33.577 Ry
atom: Maximum radius for 4*pi*r*r*local-pseudopot. charge    2.04484
atom: Maximum radius for r*vlocal+2*Zval:    1.75994
GHOST: No ghost state for L =  0
GHOST: No ghost state for L =  1
GHOST: No ghost state for L =  2
GHOST: No ghost state for L =  3

KBgen: Kleinman-Bylander projectors: 
   l= 0   rc=  1.897051   el= -0.693730   Ekb=  4.595746   kbcos=  0.286105
   l= 1   rc=  1.920920   el= -0.265236   Ekb= -2.350715   kbcos= -0.315747
   l= 2   rc=  2.044840   el=  0.002055   Ekb= -0.690767   kbcos= -0.013822
   l= 3   rc=  2.149707   el=  0.003188   Ekb= -0.315358   kbcos= -0.002055

KBgen: Total number of  Kleinman-Bylander projectors:   16
atom: -------------------------------------------------------------------------

atom: SANKEY-TYPE ORBITALS:
atom: Selected multiple-zeta basis: split     

SPLIT: Orbitals with angular momentum L= 0

SPLIT: Basis orbitals for state 2s

SPLIT: PAO cut-off radius determined from an
SPLIT: energy shift=  0.007350 Ry

   izeta = 1
                 lambda =    1.000000
                     rc =    5.422032
                 energy =   -0.686029
                kinetic =    0.576707
    potential(screened) =   -1.262736
       potential(ionic) =   -3.271094

   izeta = 2
                 rmatch =    4.222573
              splitnorm =    0.150000
                 energy =   -0.602132
                kinetic =    0.858975
    potential(screened) =   -1.461107
       potential(ionic) =   -3.582536

SPLIT: Orbitals with angular momentum L= 1

SPLIT: Basis orbitals for state 2p

SPLIT: PAO cut-off radius determined from an
SPLIT: energy shift=  0.007350 Ry

   izeta = 1
                 lambda =    1.000000
                     rc =    6.790259
                 energy =   -0.258578
                kinetic =    1.481412
    potential(screened) =   -1.739989
       potential(ionic) =   -3.657461

   izeta = 2
                 rmatch =    4.608740
              splitnorm =    0.150000
                 energy =   -0.173757
                kinetic =    2.186690
    potential(screened) =   -2.360447
       potential(ionic) =   -4.464260

POLgen: Perturbative polarization orbital with L=  2

POLgen: Polarization orbital for state 2p

   izeta = 1
                     rc =    6.790259
                 energy =    0.684082
                kinetic =    1.471481
    potential(screened) =   -0.787399
       potential(ionic) =   -2.406985
atom: Total number of Sankey-type orbitals: 13

atm_pop: Valence configuration (for local Pseudopot. screening):
 2s( 2.00)                                                            
 2p( 1.00)                                                            
Vna: chval, zval:    3.00000   3.00000

Vna:  Cut-off radius for the neutral-atom potential:   6.790259
comcore: Pseudo-core radius Rcore=  2.122997

atom: _________________________________________________________________________

prinput: Basis input ----------------------------------------------------------

PAO.BasisType split     

%block ChemicalSpeciesLabel
    1    6 C                       # Species index, atomic number, species label
    2    5 B                       # Species index, atomic number, species label
%endblock ChemicalSpeciesLabel

%block PAO.Basis                 # Define Basis set
C                     2                    # Species label, number of l-shells
 n=2   0   2                         # n, l, Nzeta 
   4.633      3.432   
   1.000      1.000   
 n=2   1   2 P   1                   # n, l, Nzeta, Polarization, NzetaPol
   5.659      3.653   
   1.000      1.000   
B                     2                    # Species label, number of l-shells
 n=2   0   2                         # n, l, Nzeta 
   5.422      4.223   
   1.000      1.000   
 n=2   1   2 P   1                   # n, l, Nzeta, Polarization, NzetaPol
   6.790      4.609   
   1.000      1.000   
%endblock PAO.Basis

prinput: ----------------------------------------------------------------------

coor:   Atomic-coordinates input format  =     Cartesian coordinates
coor:                                          (in Angstroms)

siesta: Atomic coordinates (Bohr) and species
siesta:      2.23554   1.32097   0.00000  1        1
siesta:     32.50328  21.48508   0.00000  1        2
siesta:     34.83141  22.82873   0.00000  1        3
siesta:     34.83116  17.45226   0.00000  1        4
siesta:     37.15930  18.79590   0.00000  1        5
siesta:     32.50291  13.41944   0.00000  1        6
siesta:     34.83104  14.76308   0.00000  1        7
siesta:     30.17465   9.38661   0.00000  1        8
siesta:     32.50278  10.73026   0.00000  1        9
siesta:     27.84639   5.35379   0.00000  1       10
siesta:     30.17453   6.69743   0.00000  1       11
siesta:     27.84714  21.48508   0.00000  1       12
siesta:     30.17527  22.82873   0.00000  1       13
siesta:      6.89168   1.32097   0.00000  1       14
siesta:      9.21981   2.66461   0.00000  1       15
siesta:     11.54782   1.32097   0.00000  1       16
siesta:     13.87595   2.66461   0.00000  1       17
siesta:     16.20396   1.32097   0.00000  1       18
siesta:     18.53210   2.66461   0.00000  1       19
siesta:     23.19013   2.66461   0.00000  1       20
siesta:     25.51813   1.32097   0.00000  1       21
siesta:     27.84627   2.66461   0.00000  1       22
siesta:      4.56380   5.35379   0.00000  1       23
siesta:      6.89193   6.69743   0.00000  1       24
siesta:      9.21994   5.35379   0.00000  1       25
siesta:     11.54807   6.69743   0.00000  1       26
siesta:     16.20421   6.69743   0.00000  1       27
siesta:     18.53411   5.35379   0.00000  1       28
siesta:     20.86224   6.69743   0.00000  1       29
siesta:     23.19025   5.35379   0.00000  1       30
siesta:     25.51838   6.69743   0.00000  1       31
siesta:      9.22019  10.73026   0.00000  1       32
siesta:     11.54820   9.38661   0.00000  1       33
siesta:     13.87633  10.73026   0.00000  1       34
siesta:     18.53247  10.73026   0.00000  1       35
siesta:     20.86237   9.38661   0.00000  1       36
siesta:     23.19050  10.73026   0.00000  1       37
siesta:      9.22031  13.41944   0.00000  1       38
siesta:     11.54845  14.76308   0.00000  1       39
siesta:     13.87645  13.41944   0.00000  1       40
siesta:     16.20459  14.76308   0.00000  1       41
siesta:     18.53448  13.41944   0.00000  1       42
siesta:     20.86262  14.76308   0.00000  1       43
siesta:     13.87670  18.79590   0.00000  1       44
siesta:     16.20471  17.45226   0.00000  1       45
siesta:     18.53284  18.79590   0.00000  1       46
siesta:     13.87683  21.48508   0.00000  1       47
siesta:     16.20496  22.82873   0.00000  1       48
siesta:     18.53486  21.48508   0.00000  1       49
siesta:     20.86299  22.82873   0.00000  1       50
siesta:     27.84664  10.73026   0.00000  1       51
siesta:     23.19063  13.41944   0.00000  1       52
siesta:     25.51876  14.76308   0.00000  1       53
siesta:     23.19088  18.79590   0.00000  1       54
siesta:     27.84677  13.41944   0.00000  1       55
siesta:     30.17490  14.76308   0.00000  1       56
siesta:     25.51888  17.45226   0.00000  1       57
siesta:     27.84702  18.79590   0.00000  1       58
siesta:     23.19100  21.48508   0.00000  1       59
siesta:     25.51913  22.82873   0.00000  1       60
siesta:     32.50316  18.79590   0.00000  1       61
siesta:     37.16131  21.48508   0.00000  1       62
siesta:     39.48945  22.82873   0.00000  1       63
siesta:      4.56367   2.66461   0.00000  2       64
siesta:     20.86199   1.32097   0.00000  2       65
siesta:     13.87608   5.35379   0.00000  2       66
siesta:      6.89205   9.38661   0.00000  2       67
siesta:     16.20434   9.38661   0.00000  2       68
siesta:     11.54857  17.45226   0.00000  2       69
siesta:     25.51851   9.38661   0.00000  2       70
siesta:     20.86274  17.45226   0.00000  2       71
siesta:     30.17503  17.45226   0.00000  2       72

siesta: System type = slab      

initatomlists: Number of atoms, orbitals, and projectors:     72   936  1152

siesta: ******************** Simulation parameters ****************************
siesta:
siesta: The following are some of the parameters of the simulation.
siesta: A complete list of the parameters used, including default values,
siesta: can be found in file out.fdf
siesta:
redata: Non-Collinear-spin run           =     F
redata: SpinPolarized (Up/Down) run      =     F
redata: Number of spin components        =     1
redata: Long output                      =     F
redata: Number of Atomic Species         =        2
redata: Charge density info will appear in .RHO file
redata: Write Mulliken Pop.              =     NO
redata: Mesh Cutoff                      =   200.0000  Ry
redata: Net charge of the system         =     0.0000 |e|
redata: Max. number of SCF Iter          =      500
redata: SCF convergence failure will abort job
redata: Performing Pulay mixing using    =    10 iterations
redata: Mix DM in first SCF step ?       =     F
redata: Write Pulay info on disk?        =     F
redata: Discard 1st Pulay DM after  kick =     F
redata: New DM Mixing Weight             =     0.0500
redata: New DM Occupancy tolerance       = 0.000000000001
redata: No kicks to SCF
redata: DM Mixing Weight for Kicks       =     0.5000
redata: DM Tolerance for SCF             =     0.000100
redata: Require Energy convergence for SCF =     F
redata: DM Energy tolerance for SCF      =     0.000100 eV
redata: Require Harris convergence for SCF =     F
redata: DM Harris energy tolerance for SCF =     0.000100 eV
redata: Using Saved Data (generic)   =     F
redata: Use continuation files for DM    =     T
redata: Neglect nonoverlap interactions  =     F
redata: Method of Calculation            =     Diagonalization
redata: Divide and Conquer               =     T
redata: Electronic Temperature           =     0.0019  Ry
redata: Fix the spin of the system       =     F
redata: Dynamics option                  =     Verlet MD run
redata: Initial MD time step             =        1
redata:   Final MD time step             =        1
redata: Length of MD time step           =     1.0000  fs
redata: Initial Temperature of MD run    =     0.0000  K
redata: Perform a MD quench              =     F
redata: ***********************************************************************
Total number of electrons:   279.000000
Total ionic charge:   279.000000

* ProcessorY, Blocksize:    2  24

k-point displ. along   1 input, could be:     0.00    0.50
k-point displ. along   2 input, could be:     0.00    0.50
 Kpoints in:          364 . Kpoints trimmed:          352

siesta: k-grid: Number of k-points =   352
siesta: k-grid: Cutoff (effective) =     5.000 Ang
siesta: k-grid: Supercell and displacements
siesta: k-grid:   26   0   0      0.000
siesta: k-grid:    0  26   0      0.000
siesta: k-grid:    0   0   1      0.000
Naive supercell factors:     2    2    2

superc: Internal auxiliary supercell:     2 x     2 x     2  =       8
superc: Number of atoms, orbitals, and projectors:    576   7488   9216

* Maximum dynamic memory allocated =     6 MB

siesta:                 ==============================
                            Begin MD step =      1
                        ==============================

superc: Internal auxiliary supercell:     2 x     2 x     2  =       8
superc: Number of atoms, orbitals, and projectors:    576   7488   9216

outcell: Unit cell vectors (Ang):
       14.785000    0.000000    0.000000
        7.393000   12.805052    0.000000
        0.000000    0.000000   10.000000

outcell: Cell vector modules (Ang)   :   14.785000   14.786000   10.000000
outcell: Cell angles (23,13,12) (deg):     90.0000     90.0000     60.0000
outcell: Cell volume (Ang**3)        :   1893.2269
New_DM. Step:     1
Initializing Density Matrix...

InitMesh: MESH =   120 x   120 x    90 =     1296000
InitMesh: Mesh cutoff (required, used) =   200.000   223.865 Ry

* Maximum dynamic memory allocated =   207 MB

stepf: Fermi-Dirac step function

siesta: Program's energy decomposition (eV):
siesta: Ebs     =     -4462.325757
siesta: Eions   =     17250.500670
siesta: Ena     =      3769.693584
siesta: Ekin    =      5903.534022
siesta: Enl     =       294.174118
siesta: DEna    =        -0.000010
siesta: DUscf   =         0.000000
siesta: DUext   =         0.000000
siesta: Exc     =     -3961.778766
siesta: eta*DQ  =         0.000000
siesta: Emadel  =         0.000000
siesta: Emeta   =         0.000000
siesta: Emolmec =         0.000000
siesta: Ekinion =         0.000000
siesta: Eharris =    -11173.271840
siesta: Etot    =    -11244.877722
siesta: FreeEng =    -11244.877722

siesta: iscf   Eharris(eV)      E_KS(eV)   FreeEng(eV)   dDmax  Ef(eV)
siesta:    1   -11173.2718   -11244.8777   -11244.8777  1.9097 -8.1169
timer: Routine,Calls,Time,% = IterSCF        1    6744.618  99.83
elaps: Routine,Calls,Wall,% = IterSCF        1     844.528  99.87
siesta:    2   -11187.0442   -11127.0083   -11127.0408  0.5065 -4.0591
siesta:    3   -11152.9236   -11160.5973   -11160.6332  0.4551 -5.4636
siesta:    4   -11149.6344   -11157.2510   -11157.3011  0.3882 -5.5997
siesta:    5   -11147.0169   -11152.8192   -11152.8486  0.2940 -5.6419
siesta:    6   -11147.7902   -11146.4189   -11146.4542  0.1332 -5.7829
siesta:    7   -11147.7325   -11143.6750   -11143.7104  0.0691 -5.8720
siesta:    8   -11146.3042   -11142.7281   -11142.7614  0.0388 -5.8939
siesta:    9   -11145.6246   -11142.8538   -11142.8886  0.0233 -5.9420
siesta:   10   -11145.2623   -11143.0524   -11143.0880  0.0169 -5.9767
siesta:   11   -11145.2173   -11143.4167   -11143.4512  0.0112 -5.9807
siesta:   12   -11145.2114   -11143.6021   -11143.6360  0.0090 -5.9816
siesta:   13   -11145.2071   -11144.1333   -11144.1672  0.0046 -5.9785
siesta:   14   -11145.2061   -11144.7096   -11144.7441  0.0031 -5.9729
siesta:   15   -11145.2061   -11144.9584   -11144.9931  0.0020 -5.9716
siesta:   16   -11145.2056   -11145.1423   -11145.1769  0.0006 -5.9711
siesta:   17   -11145.2055   -11145.1692   -11145.2037  0.0005 -5.9704
siesta:   18   -11145.2055   -11145.1925   -11145.2270  0.0004 -5.9706
siesta:   19   -11145.2055   -11145.2131   -11145.2476  0.0003 -5.9707
siesta:   20   -11145.2055   -11145.2145   -11145.2490  0.0003 -5.9708
siesta:   21   -11145.2055   -11145.2171   -11145.2516  0.0002 -5.9708
siesta:   22   -11145.2055   -11145.2143   -11145.2488  0.0001 -5.9709
siesta:   23   -11145.2055   -11145.2054   -11145.2399  0.0001 -5.9709

siesta: E_KS(eV) =           -11145.2047

siesta: E_KS - E_eggbox =    -11145.2047

siesta: Atomic forces (eV/Ang):
----------------------------------------
   Tot    0.200516   -0.139422    0.000000
----------------------------------------
   Max    3.934447
   Res    1.231765    sqrt( Sum f_i^2 / 3N )
----------------------------------------
   Max    3.934447    constrained

Stress-tensor-Voigt (kbar):     -118.45     -118.75       -0.25       -0.70        0.00        0.00
(Free)E + p*V (eV/cell)   -11051.7127
Target enthalpy (eV/cell)   -11145.2392

siesta: Stress tensor (static) (eV/Ang**3):
        -0.073928   -0.000440    0.000000
        -0.000440   -0.074117    0.000000
         0.000000    0.000000   -0.000157

siesta: Pressure (static):         79.14926157  kBar

siesta: Stress tensor (total) (eV/Ang**3):
        -0.073928   -0.000440    0.000000
        -0.000440   -0.074117    0.000000
         0.000000    0.000000   -0.000157

siesta: Pressure (total):         79.14926157  kBar

siesta: Temp_ion =       0.000 K

* Maximum dynamic memory allocated =   222 MB

siesta: Program's energy decomposition (eV):
siesta: Ebs     =     -3691.234558
siesta: Eions   =     17250.500670
siesta: Ena     =      3769.693584
siesta: Ekin    =      7407.115061
siesta: Enl     =      -691.969805
siesta: DEna    =      -342.207725
siesta: DUscf   =        36.423984
siesta: DUext   =         0.000000
siesta: Exc     =     -4073.759105
siesta: eta*DQ  =         0.000000
siesta: Emadel  =         0.000000
siesta: Emeta   =         0.000000
siesta: Emolmec =         0.000000
siesta: Ekinion =         0.000000
siesta: Eharris =    -11145.205465
siesta: Etot    =    -11145.204676
siesta: FreeEng =    -11145.239168

siesta: Final energy (eV):
siesta:  Band Struct. =   -3691.234558
siesta:       Kinetic =    7407.115061
siesta:       Hartree =   21692.688296
siesta:    Ext. field =       0.000000
siesta:   Exch.-corr. =   -4073.759105
siesta:  Ion-electron =  -50124.359904
siesta:       Ion-ion =   13953.110976
siesta:       Ekinion =       0.000000
siesta:         Total =  -11145.204676

siesta: Atomic forces (eV/Ang):
siesta:      1   -3.233688   -1.885015    0.000000
siesta:      2    1.101121   -0.834561    0.000000
siesta:      3   -0.011581   -3.096172    0.000000
siesta:      4    0.009812    1.056954    0.000000
siesta:      5   -2.666036    1.708297    0.000000
siesta:      6   -1.046563   -0.595722    0.000000
siesta:      7    0.156570    0.085896    0.000000
siesta:      8   -0.263623    1.483361    0.000000
siesta:      9   -2.826758    1.556537    0.000000
siesta:     10   -0.569744    0.059995    0.000000
siesta:     11    0.557922   -0.144054    0.000000
siesta:     12   -0.393098   -0.213941    0.000000
siesta:     13   -0.135577    0.227469    0.000000
siesta:     14    3.401829   -2.021789    0.000000
siesta:     15    0.029801   -0.997129    0.000000
siesta:     16    0.578257   -0.331880    0.000000
siesta:     17   -0.339049   -3.934447    0.000000
siesta:     18   -0.609123   -0.032959    0.000000
siesta:     19   -2.424006    1.557199    0.000000
siesta:     20    2.765591    1.663654    0.000000
siesta:     21   -0.084322    0.433432    0.000000
siesta:     22    0.523807   -0.961687    0.000000
siesta:     23    0.119819    3.479166    0.000000
siesta:     24   -0.578052   -3.390087    0.000000
siesta:     25    0.014040    0.689045    0.000000
siesta:     26   -3.365183    1.048803    0.000000
siesta:     27    3.257861   -1.702926    0.000000
siesta:     28   -0.919183    0.080472    0.000000
siesta:     29    0.136119   -0.195534    0.000000
siesta:     30    0.912506   -0.463489    0.000000
siesta:     31    0.151945   -3.484926    0.000000
siesta:     32    2.920402    1.659298    0.000000
siesta:     33   -0.656687    1.372306    0.000000
siesta:     34   -2.920964    1.818056    0.000000
siesta:     35    2.792221    1.783988    0.000000
siesta:     36    0.025571    1.127360    0.000000
siesta:     37   -2.800233    1.529703    0.000000
siesta:     38    0.918690   -0.388042    0.000000
siesta:     39   -0.042661   -3.083023    0.000000
siesta:     40   -0.952343   -0.568685    0.000000
siesta:     41   -0.056538    0.053998    0.000000
siesta:     42    1.028750   -0.586217    0.000000
siesta:     43   -0.014819   -3.108225    0.000000
siesta:     44    2.815985    1.538433    0.000000
siesta:     45   -0.170844    0.966661    0.000000
siesta:     46   -2.798127    2.018076    0.000000
siesta:     47    0.329670   -0.352301    0.000000
siesta:     48   -0.460806    0.817778    0.000000
siesta:     49   -0.596078   -0.766513    0.000000
siesta:     50    0.596696    0.636751    0.000000
siesta:     51    2.927267    1.558025    0.000000
siesta:     52   -0.902238   -0.525743    0.000000
siesta:     53    0.030393   -0.059734    0.000000
siesta:     54    3.005398    1.772905    0.000000
siesta:     55    0.917822   -0.480353    0.000000
siesta:     56   -0.029652   -3.132788    0.000000
siesta:     57    0.025981    1.080340    0.000000
siesta:     58   -2.927376    1.653570    0.000000
siesta:     59    0.558241   -0.587844    0.000000
siesta:     60   -0.247425    0.401721    0.000000
siesta:     61    2.736391    1.730880    0.000000
siesta:     62   -1.124902   -0.807853    0.000000
siesta:     63    0.362295    0.211908    0.000000
siesta:     64   -0.256597   -0.046636    0.000000
siesta:     65   -0.156843   -0.049922    0.000000
siesta:     66    0.378496   -0.107654    0.000000
siesta:     67    0.176584    0.108740    0.000000
siesta:     68    0.452053   -0.287818    0.000000
siesta:     69    0.004694    0.027028    0.000000
siesta:     70    0.051745    0.015683    0.000000
siesta:     71   -0.018188    0.048271    0.000000
siesta:     72    0.027075    0.024489    0.000000
siesta: ----------------------------------------
siesta:    Tot    0.200516   -0.139422    0.000000

siesta: Stress tensor (static) (eV/Ang**3):
siesta:    -0.073928   -0.000440    0.000000
siesta:    -0.000440   -0.074117    0.000000
siesta:     0.000000    0.000000   -0.000157

siesta: Cell volume =       1893.226895 Ang**3

siesta: Pressure (static):
siesta:                Solid            Molecule  Units
siesta:           0.00053804          0.00049276  Ry/Bohr**3
siesta:           0.04940055          0.04524396  eV/Ang**3
siesta:          79.14926157         72.48960255  kBar
(Free)E+ p_basis*V_orbitals  =      -11111.657969
(Free)Eharris+ p_basis*V_orbitals  =      -11111.658054

siesta: Electric dipole (a.u.)  =    0.000000    0.000000    0.000000
siesta: Electric dipole (Debye) =    0.000000    0.000000    0.000000

* Maximum dynamic memory allocated : Node    0 =   222 MB
* Maximum dynamic memory allocated : Node    1 =    80 MB
* Maximum dynamic memory allocated : Node    2 =    84 MB
* Maximum dynamic memory allocated : Node    3 =   211 MB
* Maximum dynamic memory allocated : Node    4 =   222 MB
* Maximum dynamic memory allocated : Node    5 =    80 MB
* Maximum dynamic memory allocated : Node    6 =    83 MB
* Maximum dynamic memory allocated : Node    7 =   204 MB

* Maximum memory occured during matrixMtoO                    

timer: CPU execution times:
timer:  Routine       Calls   Time/call    Tot.time        %
timer:  siesta            1  153419.775  153419.775   100.00
timer:  Setup             1       3.881       3.881     0.00
timer:  bands             1       0.017       0.017     0.00
timer:  writewave         1       0.040       0.040     0.00
timer:  KSV_init          1       0.006       0.006     0.00
timer:  IterMD            1  153408.009  153408.009    99.99
timer:  hsparse           1       0.389       0.389     0.00
timer:  overlap           1       6.401       6.401     0.00
timer:  IterSCF          23    6661.419  153212.628    99.86
timer:  kinefsm           2       3.313       6.626     0.00
timer:  nlefsm            2      20.195      40.390     0.03
timer:  DHSCF            24     107.504    2580.086     1.68
timer:  DHSCF1            1       1.013       1.013     0.00
timer:  DHSCF2            1      42.070      42.070     0.03
timer:  REORD           194       0.010       1.952     0.00
timer:  POISON           25       2.251      56.279     0.04
timer:  DHSCF3           24     104.102    2498.452     1.63
timer:  rhoofd           24      19.864     476.734     0.31
timer:  cellXC           24       3.553      85.266     0.06
timer:  vmat             24      54.603    1310.467     0.85
timer:  MolMec            2       0.000       0.000     0.00
timer:  diagon           23    6552.007  150696.171    98.22
timer:  c-eigval       8096       6.690   54164.227    35.30
timer:  c-buildHS      8096       0.123     991.785     0.65
timer:  cdiag         16192       6.891  111586.096    72.73
timer:  cdiag1        16192       0.426    6900.983     4.50
timer:  cdiag2        16192       1.909   30904.593    20.14
timer:  cdiag3        16192       3.956   64052.955    41.75
timer:  cdiag4        16192       0.230    3717.135     2.42
timer:  c-eigvec       8096       7.289   59011.353    38.46
timer:  c-buildD       8096       4.626   37454.845    24.41
timer:  DHSCF4            1      37.248      37.248     0.02
timer:  dfscf             1      34.709      34.709     0.02
timer:  overfsm           1       0.432       0.432     0.00
timer:  optical           1       6.932       6.932     0.00
  

elaps: ELAPSED times:
elaps:  Routine       Calls   Time/call    Tot.time        %
elaps:  siesta            1   19199.685   19199.685   100.00
elaps:  Setup             1       0.501       0.501     0.00
elaps:  bands             1       0.002       0.002     0.00
elaps:  writewave         1       0.006       0.006     0.00
elaps:  KSV_init          1       0.001       0.001     0.00
elaps:  IterMD            1   19198.190   19198.190    99.99
elaps:  hsparse           1       0.049       0.049     0.00
elaps:  overlap           1       0.527       0.527     0.00
elaps:  IterSCF          23     833.662   19174.216    99.87
elaps:  kinefsm           2       0.277       0.555     0.00
elaps:  nlefsm            2       2.599       5.198     0.03
elaps:  DHSCF            24      13.597     326.327     1.70
elaps:  DHSCF1            1       0.128       0.128     0.00
elaps:  DHSCF2            1       5.262       5.262     0.03
elaps:  REORD           194       0.001       0.254     0.00
elaps:  POISON           25       0.282       7.058     0.04
elaps:  DHSCF3           24      13.024     312.584     1.63
elaps:  rhoofd           24       4.228     101.477     0.53
elaps:  cellXC           24       0.444      10.647     0.06
elaps:  vmat             24       6.831     163.939     0.85
elaps:  MolMec            2       0.000       0.000     0.00
elaps:  diagon           23     819.964   18859.180    98.23
elaps:  c-eigval       8096       0.837    6776.886    35.30
elaps:  c-buildHS      8096       0.017     134.390     0.70
elaps:  cdiag         16192       0.850   13767.713    71.71
elaps:  cdiag1        16192       0.053     855.957     4.46
elaps:  cdiag2        16192       0.239    3866.803    20.14
elaps:  cdiag3        16192       0.496    8024.647    41.80
elaps:  cdiag4        16192       0.029     463.754     2.42
elaps:  c-eigvec       8096       0.892    7217.927    37.59
elaps:  c-buildD       8096       0.600    4856.101    25.29
elaps:  DHSCF4            1       8.177       8.177     0.04
elaps:  dfscf             1       7.691       7.691     0.04
elaps:  overfsm           1       0.052       0.052     0.00
elaps:  optical           1       0.001       0.001     0.00
  
>> End of run:  28-NOV-2015   8:00:02
