Siesta Version:                                        siesta-3.2-pl-3
Architecture  : x86_64-unknown-linux-gnu--unknown
Compiler flags: mpiifort -g -O2 -fPIC -xSSE4.1 -fp-model source -shared-intel 
PARALLEL version

* Running on    8 nodes in parallel
>> Start of run:   3-DEC-2015  16:19:23

                           ***********************       
                           *  WELCOME TO SIESTA  *       
                           ***********************       

reinit: Reading from standard input
************************** Dump of input data file ****************************
#(1) General system descriptors
SystemName            GRP_doping    # Descriptive name of the system
SystemLabel           GRP_doping    # Short name for naming files
%include STRUCT.fdf
%include KPT.fdf
%include BASIS.fdf
#%include TS.fdf # for transiesta calculation
#(4) DFT, Grid, SCF
XC.functional         GGA           # LDA or GGA (default = LDA)
XC.authors            PBE           # CA (Ceperley-Aldr) = PZ
                                    #    (Perdew-Zunger) - LDA - Default
                                    # PW92 (Perdew-Wang-92) - LDA
                                    # PBE (Perdew-Burke-Ernzerhof) - GGA
MeshCutoff            200.000000    Ry      # Default: 50.0 Ry ~ 0.444 Bohr
                                    #         100.0 Ry ~ 0.314 Bohr
MaxSCFIterations      500           # Default: 50
DM.MixingWeight       0.05          # Default: 0.25
DM.NumberPulay        10            # Default: 0
DM.PulayOnFile        F             # SystemLabel.P1, SystemLabel.P2
DM.Tolerance          1.d-4         # Default: 1.d-4
DM.UseSaveDM          .true.        # because of the bug
SCFMustConverge       .true.
NeglNonOverlapInt     F             # Default: F
#(5) Eigenvalue problem: order-N or diagonalization
SolutionMethod        Diagon        # or Transiesta
ElectronicTemperature 300.0 K       # Default: 300.0 K
#(6) Molecular dynamics and relaxations
#MD.TypeOfRun          CG            # Type of dynamics:
#MD.VariableCell       F
#MD.NumCGsteps         0           # 0 for single-point / 100 for gopt
#MD.MaxCGDispl         0.2 Bohr      # Default: 0.2 Bohr
#MD.MaxForceTol        0.02 eV/Ang   # Default: 0.04 eV/Ang
#MD.MaxStressTol       1.0 GPa       # Default: 1.0 GPa
# Geometry Constraints
#%block GeometryConstraints
#	position from 1 to 44
#%endblock GeometryConstraints
************************** End of input data file *****************************

reinit: -----------------------------------------------------------------------
reinit: System Name: GRP_doping
reinit: -----------------------------------------------------------------------
reinit: System Label: GRP_doping                                                  
reinit: -----------------------------------------------------------------------

initatom: Reading input for the pseudopotentials and atomic orbitals ----------
 Species number:            1  Label: B Atomic number:           5
 Species number:            2  Label: C Atomic number:           6
Ground state valence configuration:   2s02  2p01
Reading pseudopotential information in formatted form from B.psf

Valence configuration for pseudopotential generation:
2s( 2.00) rc: 1.74
2p( 1.00) rc: 1.74
3d( 0.00) rc: 1.74
4f( 0.00) rc: 1.74
Ground state valence configuration:   2s02  2p02
Reading pseudopotential information in formatted form from C.psf

Valence configuration for pseudopotential generation:
2s( 2.00) rc: 1.54
2p( 2.00) rc: 1.54
3d( 0.00) rc: 1.54
4f( 0.00) rc: 1.54
For B, standard SIESTA heuristics set lmxkb to 3
 (one more than the basis l, including polarization orbitals).
Use PS.lmax or PS.KBprojectors blocks to override.
For C, standard SIESTA heuristics set lmxkb to 3
 (one more than the basis l, including polarization orbitals).
Use PS.lmax or PS.KBprojectors blocks to override.

<basis_specs>
===============================================================================
B                    Z=   5    Mass=  10.810        Charge= 0.17977+309
Lmxo=1 Lmxkb= 3    BasisType=split      Semic=F
L=0  Nsemic=0  Cnfigmx=2
          n=1  nzeta=2  polorb=0
            splnorm:   0.15000    
               vcte:    0.0000    
               rinn:    0.0000    
                rcs:    0.0000      0.0000    
            lambdas:    1.0000      1.0000    
L=1  Nsemic=0  Cnfigmx=2
          n=1  nzeta=2  polorb=1
            splnorm:   0.15000    
               vcte:    0.0000    
               rinn:    0.0000    
                rcs:    0.0000      0.0000    
            lambdas:    1.0000      1.0000    
-------------------------------------------------------------------------------
L=0  Nkbl=1  erefs: 0.17977+309
L=1  Nkbl=1  erefs: 0.17977+309
L=2  Nkbl=1  erefs: 0.17977+309
L=3  Nkbl=1  erefs: 0.17977+309
===============================================================================
</basis_specs>

atom: Called for B                     (Z =   5)

read_vps: Pseudopotential generation method:
read_vps: ATM3      Troullier-Martins                       
Total valence charge:    3.00000

read_vps: Pseudopotential includes a core correction:
read_vps: Pseudo-core for xc-correction

xc_check: Exchange-correlation functional:
xc_check: GGA Perdew, Burke & Ernzerhof 1996
V l=0 = -2*Zval/r beyond r=  1.7165
V l=1 = -2*Zval/r beyond r=  1.7165
V l=2 = -2*Zval/r beyond r=  1.7165
V l=3 = -2*Zval/r beyond r=  1.6951
All V_l potentials equal beyond r=  1.7165
This should be close to max(r_c) in ps generation
All pots = -2*Zval/r beyond r=  1.7165

VLOCAL1: 99.0% of the norm of Vloc inside     14.733 Ry
VLOCAL1: 99.9% of the norm of Vloc inside     33.577 Ry
atom: Maximum radius for 4*pi*r*r*local-pseudopot. charge    2.04484
atom: Maximum radius for r*vlocal+2*Zval:    1.75994
GHOST: No ghost state for L =  0
GHOST: No ghost state for L =  1
GHOST: No ghost state for L =  2
GHOST: No ghost state for L =  3

KBgen: Kleinman-Bylander projectors: 
   l= 0   rc=  1.897051   el= -0.693730   Ekb=  4.595746   kbcos=  0.286105
   l= 1   rc=  1.920920   el= -0.265236   Ekb= -2.350715   kbcos= -0.315747
   l= 2   rc=  2.044840   el=  0.002055   Ekb= -0.690767   kbcos= -0.013822
   l= 3   rc=  2.149707   el=  0.003188   Ekb= -0.315358   kbcos= -0.002055

KBgen: Total number of  Kleinman-Bylander projectors:   16
atom: -------------------------------------------------------------------------

atom: SANKEY-TYPE ORBITALS:
atom: Selected multiple-zeta basis: split     

SPLIT: Orbitals with angular momentum L= 0

SPLIT: Basis orbitals for state 2s

SPLIT: PAO cut-off radius determined from an
SPLIT: energy shift=  0.007350 Ry

   izeta = 1
                 lambda =    1.000000
                     rc =    5.422032
                 energy =   -0.686029
                kinetic =    0.576707
    potential(screened) =   -1.262736
       potential(ionic) =   -3.271094

   izeta = 2
                 rmatch =    4.222573
              splitnorm =    0.150000
                 energy =   -0.602132
                kinetic =    0.858975
    potential(screened) =   -1.461107
       potential(ionic) =   -3.582536

SPLIT: Orbitals with angular momentum L= 1

SPLIT: Basis orbitals for state 2p

SPLIT: PAO cut-off radius determined from an
SPLIT: energy shift=  0.007350 Ry

   izeta = 1
                 lambda =    1.000000
                     rc =    6.790259
                 energy =   -0.258578
                kinetic =    1.481412
    potential(screened) =   -1.739989
       potential(ionic) =   -3.657461

   izeta = 2
                 rmatch =    4.608740
              splitnorm =    0.150000
                 energy =   -0.173757
                kinetic =    2.186690
    potential(screened) =   -2.360447
       potential(ionic) =   -4.464260

POLgen: Perturbative polarization orbital with L=  2

POLgen: Polarization orbital for state 2p

   izeta = 1
                     rc =    6.790259
                 energy =    0.684082
                kinetic =    1.471481
    potential(screened) =   -0.787399
       potential(ionic) =   -2.406985
atom: Total number of Sankey-type orbitals: 13

atm_pop: Valence configuration (for local Pseudopot. screening):
 2s( 2.00)                                                            
 2p( 1.00)                                                            
Vna: chval, zval:    3.00000   3.00000

Vna:  Cut-off radius for the neutral-atom potential:   6.790259
comcore: Pseudo-core radius Rcore=  2.122997

atom: _________________________________________________________________________

<basis_specs>
===============================================================================
C                    Z=   6    Mass=  12.010        Charge= 0.17977+309
Lmxo=1 Lmxkb= 3    BasisType=split      Semic=F
L=0  Nsemic=0  Cnfigmx=2
          n=1  nzeta=2  polorb=0
            splnorm:   0.15000    
               vcte:    0.0000    
               rinn:    0.0000    
                rcs:    0.0000      0.0000    
            lambdas:    1.0000      1.0000    
L=1  Nsemic=0  Cnfigmx=2
          n=1  nzeta=2  polorb=1
            splnorm:   0.15000    
               vcte:    0.0000    
               rinn:    0.0000    
                rcs:    0.0000      0.0000    
            lambdas:    1.0000      1.0000    
-------------------------------------------------------------------------------
L=0  Nkbl=1  erefs: 0.17977+309
L=1  Nkbl=1  erefs: 0.17977+309
L=2  Nkbl=1  erefs: 0.17977+309
L=3  Nkbl=1  erefs: 0.17977+309
===============================================================================
</basis_specs>

atom: Called for C                     (Z =   6)

read_vps: Pseudopotential generation method:
read_vps: ATM3      Troullier-Martins                       
Total valence charge:    4.00000

read_vps: Pseudopotential includes a core correction:
read_vps: Pseudo-core for xc-correction

xc_check: Exchange-correlation functional:
xc_check: GGA Perdew, Burke & Ernzerhof 1996
V l=0 = -2*Zval/r beyond r=  1.5227
V l=1 = -2*Zval/r beyond r=  1.5227
V l=2 = -2*Zval/r beyond r=  1.5227
V l=3 = -2*Zval/r beyond r=  1.5038
All V_l potentials equal beyond r=  1.5227
This should be close to max(r_c) in ps generation
All pots = -2*Zval/r beyond r=  1.5227

VLOCAL1: 99.0% of the norm of Vloc inside     18.722 Ry
VLOCAL1: 99.9% of the norm of Vloc inside     42.668 Ry
atom: Maximum radius for 4*pi*r*r*local-pseudopot. charge    1.83678
atom: Maximum radius for r*vlocal+2*Zval:    1.58088
GHOST: No ghost state for L =  0
GHOST: No ghost state for L =  1
GHOST: No ghost state for L =  2
GHOST: No ghost state for L =  3

KBgen: Kleinman-Bylander projectors: 
   l= 0   rc=  1.704034   el= -1.009801   Ekb=  5.335044   kbcos=  0.316824
   l= 1   rc=  1.704034   el= -0.388707   Ekb= -3.785862   kbcos= -0.366464
   l= 2   rc=  1.791422   el=  0.001971   Ekb= -0.970471   kbcos= -0.009212
   l= 3   rc=  1.859892   el=  0.003065   Ekb= -0.399525   kbcos= -0.001223

KBgen: Total number of  Kleinman-Bylander projectors:   16
atom: -------------------------------------------------------------------------

atom: SANKEY-TYPE ORBITALS:
atom: Selected multiple-zeta basis: split     

SPLIT: Orbitals with angular momentum L= 0

SPLIT: Basis orbitals for state 2s

SPLIT: PAO cut-off radius determined from an
SPLIT: energy shift=  0.007350 Ry

   izeta = 1
                 lambda =    1.000000
                     rc =    4.632753
                 energy =   -1.002270
                kinetic =    0.855760
    potential(screened) =   -1.858031
       potential(ionic) =   -5.417575

   izeta = 2
                 rmatch =    3.431921
              splitnorm =    0.150000
                 energy =   -0.867111
                kinetic =    1.300804
    potential(screened) =   -2.167915
       potential(ionic) =   -5.962684

SPLIT: Orbitals with angular momentum L= 1

SPLIT: Basis orbitals for state 2p

SPLIT: PAO cut-off radius determined from an
SPLIT: energy shift=  0.007350 Ry

   izeta = 1
                 lambda =    1.000000
                     rc =    5.658549
                 energy =   -0.381140
                kinetic =    2.399701
    potential(screened) =   -2.780841
       potential(ionic) =   -6.206085

   izeta = 2
                 rmatch =    3.653288
              splitnorm =    0.150000
                 energy =   -0.249149
                kinetic =    3.542762
    potential(screened) =   -3.791911
       potential(ionic) =   -7.581078

POLgen: Perturbative polarization orbital with L=  2

POLgen: Polarization orbital for state 2p

   izeta = 1
                     rc =    5.658549
                 energy =    1.109913
                kinetic =    2.304789
    potential(screened) =   -1.194876
       potential(ionic) =   -4.013592
atom: Total number of Sankey-type orbitals: 13

atm_pop: Valence configuration (for local Pseudopot. screening):
 2s( 2.00)                                                            
 2p( 2.00)                                                            
Vna: chval, zval:    4.00000   4.00000

Vna:  Cut-off radius for the neutral-atom potential:   5.658549
comcore: Pseudo-core radius Rcore=  1.791422

atom: _________________________________________________________________________

prinput: Basis input ----------------------------------------------------------

PAO.BasisType split     

%block ChemicalSpeciesLabel
    1    5 B                       # Species index, atomic number, species label
    2    6 C                       # Species index, atomic number, species label
%endblock ChemicalSpeciesLabel

%block PAO.Basis                 # Define Basis set
B                     2                    # Species label, number of l-shells
 n=2   0   2                         # n, l, Nzeta 
   5.422      4.223   
   1.000      1.000   
 n=2   1   2 P   1                   # n, l, Nzeta, Polarization, NzetaPol
   6.790      4.609   
   1.000      1.000   
C                     2                    # Species label, number of l-shells
 n=2   0   2                         # n, l, Nzeta 
   4.633      3.432   
   1.000      1.000   
 n=2   1   2 P   1                   # n, l, Nzeta, Polarization, NzetaPol
   5.659      3.653   
   1.000      1.000   
%endblock PAO.Basis

prinput: ----------------------------------------------------------------------

coor:   Atomic-coordinates input format  =     Cartesian coordinates
coor:                                          (in Angstroms)

siesta: Atomic coordinates (Bohr) and species
siesta:      2.23554   1.32097   0.00000  1        1
siesta:     32.50328  21.48508   0.00000  1        2
siesta:     11.54782   1.32097   0.00000  1        3
siesta:     20.86199   1.32097   0.00000  1        4
siesta:      4.56380   5.35379   0.00000  1        5
siesta:     13.87608   5.35379   0.00000  1        6
siesta:     23.19025   5.35379   0.00000  1        7
siesta:      6.89205   9.38661   0.00000  1        8
siesta:     16.20434   9.38661   0.00000  1        9
siesta:      9.22031  13.41944   0.00000  1       10
siesta:     18.53448  13.41944   0.00000  1       11
siesta:     11.54857  17.45226   0.00000  1       12
siesta:     13.87683  21.48508   0.00000  1       13
siesta:     25.51851   9.38661   0.00000  1       14
siesta:     20.86274  17.45226   0.00000  1       15
siesta:     27.84677  13.41944   0.00000  1       16
siesta:     23.19100  21.48508   0.00000  1       17
siesta:     30.17503  17.45226   0.00000  1       18
siesta:      4.56367   2.66461   0.00000  2       19
siesta:     34.83141  22.82873   0.00000  2       20
siesta:     34.83116  17.45226   0.00000  2       21
siesta:     37.15930  18.79590   0.00000  2       22
siesta:     32.50291  13.41944   0.00000  2       23
siesta:     34.83104  14.76308   0.00000  2       24
siesta:     30.17465   9.38661   0.00000  2       25
siesta:     32.50278  10.73026   0.00000  2       26
siesta:     27.84639   5.35379   0.00000  2       27
siesta:     30.17453   6.69743   0.00000  2       28
siesta:     27.84714  21.48508   0.00000  2       29
siesta:     30.17527  22.82873   0.00000  2       30
siesta:      6.89168   1.32097   0.00000  2       31
siesta:      9.21981   2.66461   0.00000  2       32
siesta:     13.87595   2.66461   0.00000  2       33
siesta:     16.20396   1.32097   0.00000  2       34
siesta:     18.53210   2.66461   0.00000  2       35
siesta:     23.19013   2.66461   0.00000  2       36
siesta:     25.51813   1.32097   0.00000  2       37
siesta:     27.84627   2.66461   0.00000  2       38
siesta:      6.89193   6.69743   0.00000  2       39
siesta:      9.21994   5.35379   0.00000  2       40
siesta:     11.54807   6.69743   0.00000  2       41
siesta:     16.20421   6.69743   0.00000  2       42
siesta:     18.53411   5.35379   0.00000  2       43
siesta:     20.86224   6.69743   0.00000  2       44
siesta:     25.51838   6.69743   0.00000  2       45
siesta:      9.22019  10.73026   0.00000  2       46
siesta:     11.54820   9.38661   0.00000  2       47
siesta:     13.87633  10.73026   0.00000  2       48
siesta:     18.53247  10.73026   0.00000  2       49
siesta:     20.86237   9.38661   0.00000  2       50
siesta:     23.19050  10.73026   0.00000  2       51
siesta:     11.54845  14.76308   0.00000  2       52
siesta:     13.87645  13.41944   0.00000  2       53
siesta:     16.20459  14.76308   0.00000  2       54
siesta:     20.86262  14.76308   0.00000  2       55
siesta:     13.87670  18.79590   0.00000  2       56
siesta:     16.20471  17.45226   0.00000  2       57
siesta:     18.53284  18.79590   0.00000  2       58
siesta:     16.20496  22.82873   0.00000  2       59
siesta:     18.53486  21.48508   0.00000  2       60
siesta:     20.86299  22.82873   0.00000  2       61
siesta:     27.84664  10.73026   0.00000  2       62
siesta:     23.19063  13.41944   0.00000  2       63
siesta:     25.51876  14.76308   0.00000  2       64
siesta:     23.19088  18.79590   0.00000  2       65
siesta:     30.17490  14.76308   0.00000  2       66
siesta:     25.51888  17.45226   0.00000  2       67
siesta:     27.84702  18.79590   0.00000  2       68
siesta:     25.51913  22.82873   0.00000  2       69
siesta:     32.50316  18.79590   0.00000  2       70
siesta:     37.16131  21.48508   0.00000  2       71
siesta:     39.48945  22.82873   0.00000  2       72

siesta: System type = slab      

initatomlists: Number of atoms, orbitals, and projectors:     72   936  1152

siesta: ******************** Simulation parameters ****************************
siesta:
siesta: The following are some of the parameters of the simulation.
siesta: A complete list of the parameters used, including default values,
siesta: can be found in file out.fdf
siesta:
redata: Non-Collinear-spin run           =     F
redata: SpinPolarized (Up/Down) run      =     F
redata: Number of spin components        =     1
redata: Long output                      =     F
redata: Number of Atomic Species         =        2
redata: Charge density info will appear in .RHO file
redata: Write Mulliken Pop.              =     NO
redata: Mesh Cutoff                      =   200.0000  Ry
redata: Net charge of the system         =     0.0000 |e|
redata: Max. number of SCF Iter          =      500
redata: SCF convergence failure will abort job
redata: Performing Pulay mixing using    =    10 iterations
redata: Mix DM in first SCF step ?       =     F
redata: Write Pulay info on disk?        =     F
redata: Discard 1st Pulay DM after  kick =     F
redata: New DM Mixing Weight             =     0.0500
redata: New DM Occupancy tolerance       = 0.000000000001
redata: No kicks to SCF
redata: DM Mixing Weight for Kicks       =     0.5000
redata: DM Tolerance for SCF             =     0.000100
redata: Require Energy convergence for SCF =     F
redata: DM Energy tolerance for SCF      =     0.000100 eV
redata: Require Harris convergence for SCF =     F
redata: DM Harris energy tolerance for SCF =     0.000100 eV
redata: Using Saved Data (generic)   =     F
redata: Use continuation files for DM    =     T
redata: Neglect nonoverlap interactions  =     F
redata: Method of Calculation            =     Diagonalization
redata: Divide and Conquer               =     T
redata: Electronic Temperature           =     0.0019  Ry
redata: Fix the spin of the system       =     F
redata: Dynamics option                  =     Verlet MD run
redata: Initial MD time step             =        1
redata:   Final MD time step             =        1
redata: Length of MD time step           =     1.0000  fs
redata: Initial Temperature of MD run    =     0.0000  K
redata: Perform a MD quench              =     F
redata: ***********************************************************************
Total number of electrons:   270.000000
Total ionic charge:   270.000000

* ProcessorY, Blocksize:    2  24

k-point displ. along   1 input, could be:     0.00    0.50
k-point displ. along   2 input, could be:     0.00    0.50
 Kpoints in:          364 . Kpoints trimmed:          352

siesta: k-grid: Number of k-points =   352
siesta: k-grid: Cutoff (effective) =     5.000 Ang
siesta: k-grid: Supercell and displacements
siesta: k-grid:   26   0   0      0.000
siesta: k-grid:    0  26   0      0.000
siesta: k-grid:    0   0   1      0.000
Naive supercell factors:     2    2    2

superc: Internal auxiliary supercell:     2 x     2 x     2  =       8
superc: Number of atoms, orbitals, and projectors:    576   7488   9216

* Maximum dynamic memory allocated =     6 MB

siesta:                 ==============================
                            Begin MD step =      1
                        ==============================

superc: Internal auxiliary supercell:     2 x     2 x     2  =       8
superc: Number of atoms, orbitals, and projectors:    576   7488   9216

outcell: Unit cell vectors (Ang):
       14.785000    0.000000    0.000000
        7.393000   12.805052    0.000000
        0.000000    0.000000   10.000000

outcell: Cell vector modules (Ang)   :   14.785000   14.786000   10.000000
outcell: Cell angles (23,13,12) (deg):     90.0000     90.0000     60.0000
outcell: Cell volume (Ang**3)        :   1893.2269
New_DM. Step:     1
Initializing Density Matrix...

InitMesh: MESH =   120 x   120 x    90 =     1296000
InitMesh: Mesh cutoff (required, used) =   200.000   223.865 Ry

* Maximum dynamic memory allocated =   219 MB

stepf: Fermi-Dirac step function

siesta: Program's energy decomposition (eV):
siesta: Ebs     =     -4338.758623
siesta: Eions   =     16097.990269
siesta: Ena     =      3563.268125
siesta: Ekin    =      5428.893495
siesta: Enl     =       373.634124
siesta: DEna    =        -0.000007
siesta: DUscf   =         0.000000
siesta: DUext   =         0.000000
siesta: Exc     =     -3983.438268
siesta: eta*DQ  =         0.000000
siesta: Emadel  =         0.000000
siesta: Emeta   =         0.000000
siesta: Emolmec =         0.000000
siesta: Ekinion =         0.000000
siesta: Eharris =    -10638.837689
siesta: Etot    =    -10715.632799
siesta: FreeEng =    -10715.632799

siesta: iscf   Eharris(eV)      E_KS(eV)   FreeEng(eV)   dDmax  Ef(eV)
siesta:    1   -10638.8377   -10715.6328   -10715.6328  1.9046 -8.7055
timer: Routine,Calls,Time,% = IterSCF        1    8449.762  99.86
elaps: Routine,Calls,Wall,% = IterSCF        1    1058.014  99.86
siesta:    2   -10648.1557   -10573.5657   -10573.5905  0.8044 -4.2441
siesta:    3   -10605.3170   -10636.8595   -10636.8941  0.6983 -6.1374
siesta:    4   -10605.1869   -10636.8587   -10636.9137  0.6976 -6.1410
siesta:    5   -10599.5373   -10608.2962   -10608.3515  0.2572 -5.8063
siesta:    6   -10601.9659   -10603.2397   -10603.2951  0.1515 -6.0110
siesta:    7   -10600.8684   -10602.0135   -10602.0572  0.1182 -6.0338
siesta:    8   -10599.3105   -10597.4129   -10597.4578  0.0122 -6.1470
siesta:    9   -10599.2700   -10597.5905   -10597.6476  0.0113 -6.1484
siesta:   10   -10599.1200   -10598.1058   -10598.1609  0.0061 -6.1328
siesta:   11   -10599.1188   -10598.3644   -10598.4179  0.0050 -6.1266
siesta:   12   -10599.1105   -10598.9403   -10598.9935  0.0020 -6.1155
siesta:   13   -10599.1097   -10599.0238   -10599.0779  0.0012 -6.1142
siesta:   14   -10599.1095   -10599.0919   -10599.1461  0.0006 -6.1141
siesta:   15   -10599.1093   -10599.1386   -10599.1929  0.0004 -6.1152
siesta:   16   -10599.1093   -10599.1287   -10599.1831  0.0002 -6.1156
siesta:   17   -10599.1093   -10599.1232   -10599.1777  0.0001 -6.1156
siesta:   18   -10599.1093   -10599.1062   -10599.1606  0.0001 -6.1155

siesta: E_KS(eV) =           -10599.1084

siesta: E_KS - E_eggbox =    -10599.1084

siesta: Atomic forces (eV/Ang):
----------------------------------------
   Tot    0.435857    0.162666    0.000000
----------------------------------------
   Max    3.745014
   Res    1.575184    sqrt( Sum f_i^2 / 3N )
----------------------------------------
   Max    3.745014    constrained

Stress-tensor-Voigt (kbar):     -205.29     -189.82       -0.50       11.48        0.00        0.00
(Free)E + p*V (eV/cell)   -10443.3385
Target enthalpy (eV/cell)   -10599.1628

siesta: Stress tensor (static) (eV/Ang**3):
        -0.128129    0.007167    0.000000
         0.007167   -0.118478    0.000000
         0.000000    0.000000   -0.000312

siesta: Pressure (static):        131.87055338  kBar

siesta: Stress tensor (total) (eV/Ang**3):
        -0.128129    0.007167    0.000000
         0.007167   -0.118478    0.000000
         0.000000    0.000000   -0.000312

siesta: Pressure (total):        131.87055338  kBar

siesta: Temp_ion =       0.000 K

* Maximum dynamic memory allocated =   234 MB

siesta: Program's energy decomposition (eV):
siesta: Ebs     =     -3466.965099
siesta: Eions   =     16097.990269
siesta: Ena     =      3563.268125
siesta: Ekin    =      6978.913575
siesta: Enl     =      -593.483742
siesta: DEna    =      -389.014112
siesta: DUscf   =        45.034879
siesta: DUext   =         0.000000
siesta: Exc     =     -4105.836885
siesta: eta*DQ  =         0.000000
siesta: Emadel  =         0.000000
siesta: Emeta   =         0.000000
siesta: Emolmec =         0.000000
siesta: Ekinion =         0.000000
siesta: Eharris =    -10599.109304
siesta: Etot    =    -10599.108430
siesta: FreeEng =    -10599.162831

siesta: Final energy (eV):
siesta:  Band Struct. =   -3466.965099
siesta:       Kinetic =    6978.913575
siesta:       Hartree =   20276.169939
siesta:    Ext. field =       0.000000
siesta:   Exch.-corr. =   -4105.836885
siesta:  Ion-electron =  -46826.144145
siesta:       Ion-ion =   13077.789086
siesta:       Ekinion =       0.000000
siesta:         Total =  -10599.108430

siesta: Atomic forces (eV/Ang):
siesta:      1    0.229856   -0.140677    0.000000
siesta:      2    0.251199   -0.119600    0.000000
siesta:      3    0.248649   -0.147439    0.000000
siesta:      4    0.212706   -0.135312    0.000000
siesta:      5    0.231709   -0.115869    0.000000
siesta:      6    0.251053   -0.123743    0.000000
siesta:      7    0.248578   -0.124844    0.000000
siesta:      8    0.230988   -0.116489    0.000000
siesta:      9    0.253266   -0.124459    0.000000
siesta:     10    0.231344   -0.115383    0.000000
siesta:     11    0.210690   -0.107662    0.000000
siesta:     12    0.231549   -0.118242    0.000000
siesta:     13    0.270627   -0.129321    0.000000
siesta:     14    0.246973   -0.124476    0.000000
siesta:     15    0.213950   -0.110506    0.000000
siesta:     16    0.245712   -0.122453    0.000000
siesta:     17    0.247227   -0.121218    0.000000
siesta:     18    0.245940   -0.121927    0.000000
siesta:     19    3.712931   -2.145161    0.000000
siesta:     20    3.743293   -2.121707    0.000000
siesta:     21   -1.356237    0.786431    0.000000
siesta:     22   -2.554593    1.481672    0.000000
siesta:     23   -1.356706    0.783408    0.000000
siesta:     24   -2.563373    1.481018    0.000000
siesta:     25   -1.356240    0.783082    0.000000
siesta:     26   -2.563897    1.480083    0.000000
siesta:     27   -1.356620    0.783828    0.000000
siesta:     28   -2.564060    1.479933    0.000000
siesta:     29   -1.357924    0.786301    0.000000
siesta:     30   -2.582381    1.508852    0.000000
siesta:     31   -1.353482    0.767402    0.000000
siesta:     32   -2.581567    1.483582    0.000000
siesta:     33    3.715327   -2.144142    0.000000
siesta:     34   -1.351572    0.767426    0.000000
siesta:     35   -2.538455    1.472732    0.000000
siesta:     36    3.711704   -2.144741    0.000000
siesta:     37   -1.352409    0.767139    0.000000
siesta:     38   -2.566283    1.478963    0.000000
siesta:     39    3.713583   -2.139252    0.000000
siesta:     40   -1.357745    0.784932    0.000000
siesta:     41   -2.579362    1.488045    0.000000
siesta:     42    3.740950   -2.147108    0.000000
siesta:     43   -1.393488    0.793058    0.000000
siesta:     44   -2.584525    1.488384    0.000000
siesta:     45    3.714275   -2.139183    0.000000
siesta:     46    3.713873   -2.139273    0.000000
siesta:     47   -1.358047    0.783935    0.000000
siesta:     48   -2.580433    1.489061    0.000000
siesta:     49    3.745014   -2.149807    0.000000
siesta:     50   -1.383640    0.791695    0.000000
siesta:     51   -2.585878    1.487776    0.000000
siesta:     52    3.712700   -2.137900    0.000000
siesta:     53   -1.354217    0.782324    0.000000
siesta:     54   -2.545533    1.474710    0.000000
siesta:     55    3.709895   -2.139756    0.000000
siesta:     56    3.711452   -2.137764    0.000000
siesta:     57   -1.354774    0.785176    0.000000
siesta:     58   -2.536869    1.472644    0.000000
siesta:     59    3.743811   -2.122368    0.000000
siesta:     60   -1.392031    0.793030    0.000000
siesta:     61   -2.586854    1.504958    0.000000
siesta:     62    3.714806   -2.139617    0.000000
siesta:     63   -1.356682    0.784392    0.000000
siesta:     64   -2.579925    1.487142    0.000000
siesta:     65    3.712149   -2.137997    0.000000
siesta:     66    3.714706   -2.139581    0.000000
siesta:     67   -1.357931    0.784751    0.000000
siesta:     68   -2.579904    1.486962    0.000000
siesta:     69    3.712753   -2.115504    0.000000
siesta:     70    3.713389   -2.139356    0.000000
siesta:     71   -1.393645    0.793416    0.000000
siesta:     72   -2.605487    1.514260    0.000000
siesta: ----------------------------------------
siesta:    Tot    0.435857    0.162666    0.000000

siesta: Stress tensor (static) (eV/Ang**3):
siesta:    -0.128129    0.007167    0.000000
siesta:     0.007167   -0.118478    0.000000
siesta:     0.000000    0.000000   -0.000312

siesta: Cell volume =       1893.226895 Ang**3

siesta: Pressure (static):
siesta:                Solid            Molecule  Units
siesta:           0.00089642          0.00119679  Ry/Bohr**3
siesta:           0.08230624          0.10988512  eV/Ang**3
siesta:         131.87055338        176.05726690  kBar
(Free)E+ p_basis*V_orbitals  =      -10562.738053
(Free)Eharris+ p_basis*V_orbitals  =      -10562.741186

siesta: Electric dipole (a.u.)  =    0.000000    0.000000    0.000000
siesta: Electric dipole (Debye) =    0.000000    0.000000    0.000000

* Maximum dynamic memory allocated : Node    0 =   234 MB
* Maximum dynamic memory allocated : Node    1 =    85 MB
* Maximum dynamic memory allocated : Node    2 =    87 MB
* Maximum dynamic memory allocated : Node    3 =   221 MB
* Maximum dynamic memory allocated : Node    4 =   233 MB
* Maximum dynamic memory allocated : Node    5 =    84 MB
* Maximum dynamic memory allocated : Node    6 =    87 MB
* Maximum dynamic memory allocated : Node    7 =   215 MB

* Maximum memory occured during matrixMtoO                    

timer: CPU execution times:
timer:  Routine       Calls   Time/call    Tot.time        %
timer:  siesta            1  151319.961  151319.961   100.00
timer:  Setup             1       3.078       3.078     0.00
timer:  bands             1       0.009       0.009     0.00
timer:  writewave         1       0.016       0.016     0.00
timer:  KSV_init          1       0.002       0.002     0.00
timer:  IterMD            1  151308.662  151308.662    99.99
timer:  hsparse           1       0.403       0.403     0.00
timer:  overlap           1       7.770       7.770     0.01
timer:  IterSCF          18    8394.139  151094.500    99.85
timer:  kinefsm           2       4.044       8.088     0.01
timer:  nlefsm            2      21.173      42.347     0.03
timer:  DHSCF            19     122.211    2322.012     1.53
timer:  DHSCF1            1       1.055       1.055     0.00
timer:  DHSCF2            1      45.211      45.211     0.03
timer:  REORD           154       0.014       2.125     0.00
timer:  POISON           20       3.711      74.218     0.05
timer:  DHSCF3           19     117.534    2233.137     1.48
timer:  rhoofd           19      22.853     434.211     0.29
timer:  cellXC           19       3.535      67.169     0.04
timer:  vmat             19      59.019    1121.357     0.74
timer:  MolMec            2       0.000       0.000     0.00
timer:  diagon           18    8270.277  148864.980    98.38
timer:  c-eigval       6336       7.211   45691.871    30.20
timer:  c-buildHS      6336       0.218    1380.349     0.91
timer:  cdiag         12672       7.432   94172.311    62.23
timer:  cdiag1        12672       0.464    5882.243     3.89
timer:  cdiag2        12672       1.978   25065.273    16.56
timer:  cdiag3        12672       4.149   52577.315    34.75
timer:  cdiag4        12672       0.275    3482.344     2.30
timer:  c-eigvec       6336       7.951   50379.108    33.29
timer:  c-buildD       6336       8.321   52720.620    34.84
timer:  DHSCF4            1      40.945      40.945     0.03
timer:  dfscf             1      38.293      38.293     0.03
timer:  overfsm           1       0.463       0.463     0.00
timer:  optical           1       7.189       7.189     0.00
  

elaps: ELAPSED times:
elaps:  Routine       Calls   Time/call    Tot.time        %
elaps:  siesta            1   18946.557   18946.557   100.00
elaps:  Setup             1       0.384       0.384     0.00
elaps:  bands             1       0.001       0.001     0.00
elaps:  writewave         1       0.002       0.002     0.00
elaps:  KSV_init          1       0.000       0.000     0.00
elaps:  IterMD            1   18945.144   18945.144    99.99
elaps:  hsparse           1       0.049       0.049     0.00
elaps:  overlap           1       0.978       0.978     0.01
elaps:  IterSCF          18    1051.020   18918.352    99.85
elaps:  kinefsm           2       0.507       1.014     0.01
elaps:  nlefsm            2       2.733       5.467     0.03
elaps:  DHSCF            19      15.499     294.474     1.55
elaps:  DHSCF1            1       0.137       0.137     0.00
elaps:  DHSCF2            1       5.651       5.651     0.03
elaps:  REORD           154       0.002       0.294     0.00
elaps:  POISON           20       0.465       9.300     0.05
elaps:  DHSCF3           19      14.705     279.396     1.47
elaps:  rhoofd           19       4.798      91.170     0.48
elaps:  cellXC           19       0.441       8.380     0.04
elaps:  vmat             19       7.384     140.293     0.74
elaps:  MolMec            2       0.000       0.000     0.00
elaps:  diagon           18    1035.560   18640.084    98.38
elaps:  c-eigval       6336       0.902    5717.632    30.18
elaps:  c-buildHS      6336       0.029     183.103     0.97
elaps:  cdiag         12672       0.908   11505.677    60.73
elaps:  cdiag1        12672       0.057     723.660     3.82
elaps:  cdiag2        12672       0.248    3136.403    16.55
elaps:  cdiag3        12672       0.520    6588.637    34.77
elaps:  cdiag4        12672       0.035     439.184     2.32
elaps:  c-eigvec       6336       0.955    6052.603    31.95
elaps:  c-buildD       6336       1.083    6859.962    36.21
elaps:  DHSCF4            1       9.060       9.060     0.05
elaps:  dfscf             1       8.536       8.536     0.05
elaps:  overfsm           1       0.060       0.060     0.00
elaps:  optical           1       0.000       0.000     0.00
  
>> End of run:   3-DEC-2015  21:35:10
