Siesta Version:                                        siesta-3.2-pl-3
Architecture  : x86_64-unknown-linux-gnu--unknown
Compiler flags: mpiifort -g -O2 -fPIC -xSSE4.1 -fp-model source -shared-intel 
PARALLEL version

* Running on    8 nodes in parallel
>> Start of run:   3-DEC-2015  16:21:21

                           ***********************       
                           *  WELCOME TO SIESTA  *       
                           ***********************       

reinit: Reading from standard input
************************** Dump of input data file ****************************
#(1) General system descriptors
SystemName            GRP_doping    # Descriptive name of the system
SystemLabel           GRP_doping    # Short name for naming files
%include STRUCT.fdf
%include KPT.fdf
%include BASIS.fdf
#%include TS.fdf # for transiesta calculation
#(4) DFT, Grid, SCF
XC.functional         GGA           # LDA or GGA (default = LDA)
XC.authors            PBE           # CA (Ceperley-Aldr) = PZ
                                    #    (Perdew-Zunger) - LDA - Default
                                    # PW92 (Perdew-Wang-92) - LDA
                                    # PBE (Perdew-Burke-Ernzerhof) - GGA
MeshCutoff            200.000000    Ry      # Default: 50.0 Ry ~ 0.444 Bohr
                                    #         100.0 Ry ~ 0.314 Bohr
MaxSCFIterations      500           # Default: 50
DM.MixingWeight       0.05          # Default: 0.25
DM.NumberPulay        10            # Default: 0
DM.PulayOnFile        F             # SystemLabel.P1, SystemLabel.P2
DM.Tolerance          1.d-4         # Default: 1.d-4
DM.UseSaveDM          .true.        # because of the bug
SCFMustConverge       .true.
NeglNonOverlapInt     F             # Default: F
#(5) Eigenvalue problem: order-N or diagonalization
SolutionMethod        Diagon        # or Transiesta
ElectronicTemperature 300.0 K       # Default: 300.0 K
#(6) Molecular dynamics and relaxations
#MD.TypeOfRun          CG            # Type of dynamics:
#MD.VariableCell       F
#MD.NumCGsteps         0           # 0 for single-point / 100 for gopt
#MD.MaxCGDispl         0.2 Bohr      # Default: 0.2 Bohr
#MD.MaxForceTol        0.02 eV/Ang   # Default: 0.04 eV/Ang
#MD.MaxStressTol       1.0 GPa       # Default: 1.0 GPa
# Geometry Constraints
#%block GeometryConstraints
#	position from 1 to 44
#%endblock GeometryConstraints
************************** End of input data file *****************************

reinit: -----------------------------------------------------------------------
reinit: System Name: GRP_doping
reinit: -----------------------------------------------------------------------
reinit: System Label: GRP_doping                                                  
reinit: -----------------------------------------------------------------------

initatom: Reading input for the pseudopotentials and atomic orbitals ----------
 Species number:            1  Label: B Atomic number:           5
 Species number:            2  Label: C Atomic number:           6
Ground state valence configuration:   2s02  2p01
Reading pseudopotential information in formatted form from B.psf

Valence configuration for pseudopotential generation:
2s( 2.00) rc: 1.74
2p( 1.00) rc: 1.74
3d( 0.00) rc: 1.74
4f( 0.00) rc: 1.74
Ground state valence configuration:   2s02  2p02
Reading pseudopotential information in formatted form from C.psf

Valence configuration for pseudopotential generation:
2s( 2.00) rc: 1.54
2p( 2.00) rc: 1.54
3d( 0.00) rc: 1.54
4f( 0.00) rc: 1.54
For B, standard SIESTA heuristics set lmxkb to 3
 (one more than the basis l, including polarization orbitals).
Use PS.lmax or PS.KBprojectors blocks to override.
For C, standard SIESTA heuristics set lmxkb to 3
 (one more than the basis l, including polarization orbitals).
Use PS.lmax or PS.KBprojectors blocks to override.

<basis_specs>
===============================================================================
B                    Z=   5    Mass=  10.810        Charge= 0.17977+309
Lmxo=1 Lmxkb= 3    BasisType=split      Semic=F
L=0  Nsemic=0  Cnfigmx=2
          n=1  nzeta=2  polorb=0
            splnorm:   0.15000    
               vcte:    0.0000    
               rinn:    0.0000    
                rcs:    0.0000      0.0000    
            lambdas:    1.0000      1.0000    
L=1  Nsemic=0  Cnfigmx=2
          n=1  nzeta=2  polorb=1
            splnorm:   0.15000    
               vcte:    0.0000    
               rinn:    0.0000    
                rcs:    0.0000      0.0000    
            lambdas:    1.0000      1.0000    
-------------------------------------------------------------------------------
L=0  Nkbl=1  erefs: 0.17977+309
L=1  Nkbl=1  erefs: 0.17977+309
L=2  Nkbl=1  erefs: 0.17977+309
L=3  Nkbl=1  erefs: 0.17977+309
===============================================================================
</basis_specs>

atom: Called for B                     (Z =   5)

read_vps: Pseudopotential generation method:
read_vps: ATM3      Troullier-Martins                       
Total valence charge:    3.00000

read_vps: Pseudopotential includes a core correction:
read_vps: Pseudo-core for xc-correction

xc_check: Exchange-correlation functional:
xc_check: GGA Perdew, Burke & Ernzerhof 1996
V l=0 = -2*Zval/r beyond r=  1.7165
V l=1 = -2*Zval/r beyond r=  1.7165
V l=2 = -2*Zval/r beyond r=  1.7165
V l=3 = -2*Zval/r beyond r=  1.6951
All V_l potentials equal beyond r=  1.7165
This should be close to max(r_c) in ps generation
All pots = -2*Zval/r beyond r=  1.7165

VLOCAL1: 99.0% of the norm of Vloc inside     14.733 Ry
VLOCAL1: 99.9% of the norm of Vloc inside     33.577 Ry
atom: Maximum radius for 4*pi*r*r*local-pseudopot. charge    2.04484
atom: Maximum radius for r*vlocal+2*Zval:    1.75994
GHOST: No ghost state for L =  0
GHOST: No ghost state for L =  1
GHOST: No ghost state for L =  2
GHOST: No ghost state for L =  3

KBgen: Kleinman-Bylander projectors: 
   l= 0   rc=  1.897051   el= -0.693730   Ekb=  4.595746   kbcos=  0.286105
   l= 1   rc=  1.920920   el= -0.265236   Ekb= -2.350715   kbcos= -0.315747
   l= 2   rc=  2.044840   el=  0.002055   Ekb= -0.690767   kbcos= -0.013822
   l= 3   rc=  2.149707   el=  0.003188   Ekb= -0.315358   kbcos= -0.002055

KBgen: Total number of  Kleinman-Bylander projectors:   16
atom: -------------------------------------------------------------------------

atom: SANKEY-TYPE ORBITALS:
atom: Selected multiple-zeta basis: split     

SPLIT: Orbitals with angular momentum L= 0

SPLIT: Basis orbitals for state 2s

SPLIT: PAO cut-off radius determined from an
SPLIT: energy shift=  0.007350 Ry

   izeta = 1
                 lambda =    1.000000
                     rc =    5.422032
                 energy =   -0.686029
                kinetic =    0.576707
    potential(screened) =   -1.262736
       potential(ionic) =   -3.271094

   izeta = 2
                 rmatch =    4.222573
              splitnorm =    0.150000
                 energy =   -0.602132
                kinetic =    0.858975
    potential(screened) =   -1.461107
       potential(ionic) =   -3.582536

SPLIT: Orbitals with angular momentum L= 1

SPLIT: Basis orbitals for state 2p

SPLIT: PAO cut-off radius determined from an
SPLIT: energy shift=  0.007350 Ry

   izeta = 1
                 lambda =    1.000000
                     rc =    6.790259
                 energy =   -0.258578
                kinetic =    1.481412
    potential(screened) =   -1.739989
       potential(ionic) =   -3.657461

   izeta = 2
                 rmatch =    4.608740
              splitnorm =    0.150000
                 energy =   -0.173757
                kinetic =    2.186690
    potential(screened) =   -2.360447
       potential(ionic) =   -4.464260

POLgen: Perturbative polarization orbital with L=  2

POLgen: Polarization orbital for state 2p

   izeta = 1
                     rc =    6.790259
                 energy =    0.684082
                kinetic =    1.471481
    potential(screened) =   -0.787399
       potential(ionic) =   -2.406985
atom: Total number of Sankey-type orbitals: 13

atm_pop: Valence configuration (for local Pseudopot. screening):
 2s( 2.00)                                                            
 2p( 1.00)                                                            
Vna: chval, zval:    3.00000   3.00000

Vna:  Cut-off radius for the neutral-atom potential:   6.790259
comcore: Pseudo-core radius Rcore=  2.122997

atom: _________________________________________________________________________

<basis_specs>
===============================================================================
C                    Z=   6    Mass=  12.010        Charge= 0.17977+309
Lmxo=1 Lmxkb= 3    BasisType=split      Semic=F
L=0  Nsemic=0  Cnfigmx=2
          n=1  nzeta=2  polorb=0
            splnorm:   0.15000    
               vcte:    0.0000    
               rinn:    0.0000    
                rcs:    0.0000      0.0000    
            lambdas:    1.0000      1.0000    
L=1  Nsemic=0  Cnfigmx=2
          n=1  nzeta=2  polorb=1
            splnorm:   0.15000    
               vcte:    0.0000    
               rinn:    0.0000    
                rcs:    0.0000      0.0000    
            lambdas:    1.0000      1.0000    
-------------------------------------------------------------------------------
L=0  Nkbl=1  erefs: 0.17977+309
L=1  Nkbl=1  erefs: 0.17977+309
L=2  Nkbl=1  erefs: 0.17977+309
L=3  Nkbl=1  erefs: 0.17977+309
===============================================================================
</basis_specs>

atom: Called for C                     (Z =   6)

read_vps: Pseudopotential generation method:
read_vps: ATM3      Troullier-Martins                       
Total valence charge:    4.00000

read_vps: Pseudopotential includes a core correction:
read_vps: Pseudo-core for xc-correction

xc_check: Exchange-correlation functional:
xc_check: GGA Perdew, Burke & Ernzerhof 1996
V l=0 = -2*Zval/r beyond r=  1.5227
V l=1 = -2*Zval/r beyond r=  1.5227
V l=2 = -2*Zval/r beyond r=  1.5227
V l=3 = -2*Zval/r beyond r=  1.5038
All V_l potentials equal beyond r=  1.5227
This should be close to max(r_c) in ps generation
All pots = -2*Zval/r beyond r=  1.5227

VLOCAL1: 99.0% of the norm of Vloc inside     18.722 Ry
VLOCAL1: 99.9% of the norm of Vloc inside     42.668 Ry
atom: Maximum radius for 4*pi*r*r*local-pseudopot. charge    1.83678
atom: Maximum radius for r*vlocal+2*Zval:    1.58088
GHOST: No ghost state for L =  0
GHOST: No ghost state for L =  1
GHOST: No ghost state for L =  2
GHOST: No ghost state for L =  3

KBgen: Kleinman-Bylander projectors: 
   l= 0   rc=  1.704034   el= -1.009801   Ekb=  5.335044   kbcos=  0.316824
   l= 1   rc=  1.704034   el= -0.388707   Ekb= -3.785862   kbcos= -0.366464
   l= 2   rc=  1.791422   el=  0.001971   Ekb= -0.970471   kbcos= -0.009212
   l= 3   rc=  1.859892   el=  0.003065   Ekb= -0.399525   kbcos= -0.001223

KBgen: Total number of  Kleinman-Bylander projectors:   16
atom: -------------------------------------------------------------------------

atom: SANKEY-TYPE ORBITALS:
atom: Selected multiple-zeta basis: split     

SPLIT: Orbitals with angular momentum L= 0

SPLIT: Basis orbitals for state 2s

SPLIT: PAO cut-off radius determined from an
SPLIT: energy shift=  0.007350 Ry

   izeta = 1
                 lambda =    1.000000
                     rc =    4.632753
                 energy =   -1.002270
                kinetic =    0.855760
    potential(screened) =   -1.858031
       potential(ionic) =   -5.417575

   izeta = 2
                 rmatch =    3.431921
              splitnorm =    0.150000
                 energy =   -0.867111
                kinetic =    1.300804
    potential(screened) =   -2.167915
       potential(ionic) =   -5.962684

SPLIT: Orbitals with angular momentum L= 1

SPLIT: Basis orbitals for state 2p

SPLIT: PAO cut-off radius determined from an
SPLIT: energy shift=  0.007350 Ry

   izeta = 1
                 lambda =    1.000000
                     rc =    5.658549
                 energy =   -0.381140
                kinetic =    2.399701
    potential(screened) =   -2.780841
       potential(ionic) =   -6.206085

   izeta = 2
                 rmatch =    3.653288
              splitnorm =    0.150000
                 energy =   -0.249149
                kinetic =    3.542762
    potential(screened) =   -3.791911
       potential(ionic) =   -7.581078

POLgen: Perturbative polarization orbital with L=  2

POLgen: Polarization orbital for state 2p

   izeta = 1
                     rc =    5.658549
                 energy =    1.109913
                kinetic =    2.304789
    potential(screened) =   -1.194876
       potential(ionic) =   -4.013592
atom: Total number of Sankey-type orbitals: 13

atm_pop: Valence configuration (for local Pseudopot. screening):
 2s( 2.00)                                                            
 2p( 2.00)                                                            
Vna: chval, zval:    4.00000   4.00000

Vna:  Cut-off radius for the neutral-atom potential:   5.658549
comcore: Pseudo-core radius Rcore=  1.791422

atom: _________________________________________________________________________

prinput: Basis input ----------------------------------------------------------

PAO.BasisType split     

%block ChemicalSpeciesLabel
    1    5 B                       # Species index, atomic number, species label
    2    6 C                       # Species index, atomic number, species label
%endblock ChemicalSpeciesLabel

%block PAO.Basis                 # Define Basis set
B                     2                    # Species label, number of l-shells
 n=2   0   2                         # n, l, Nzeta 
   5.422      4.223   
   1.000      1.000   
 n=2   1   2 P   1                   # n, l, Nzeta, Polarization, NzetaPol
   6.790      4.609   
   1.000      1.000   
C                     2                    # Species label, number of l-shells
 n=2   0   2                         # n, l, Nzeta 
   4.633      3.432   
   1.000      1.000   
 n=2   1   2 P   1                   # n, l, Nzeta, Polarization, NzetaPol
   5.659      3.653   
   1.000      1.000   
%endblock PAO.Basis

prinput: ----------------------------------------------------------------------

coor:   Atomic-coordinates input format  =     Cartesian coordinates
coor:                                          (in Angstroms)

siesta: Atomic coordinates (Bohr) and species
siesta:      2.23554   1.32097   0.00000  1        1
siesta:     34.83141  22.82873   0.00000  1        2
siesta:     11.54782   1.32097   0.00000  1        3
siesta:     20.86199   1.32097   0.00000  1        4
siesta:      6.89193   6.69743   0.00000  1        5
siesta:     16.20421   6.69743   0.00000  1        6
siesta:     25.51838   6.69743   0.00000  1        7
siesta:      6.89205   9.38661   0.00000  1        8
siesta:     16.20434   9.38661   0.00000  1        9
siesta:     11.54845  14.76308   0.00000  1       10
siesta:     20.86262  14.76308   0.00000  1       11
siesta:     11.54857  17.45226   0.00000  1       12
siesta:     16.20496  22.82873   0.00000  1       13
siesta:     25.51851   9.38661   0.00000  1       14
siesta:     20.86274  17.45226   0.00000  1       15
siesta:     30.17490  14.76308   0.00000  1       16
siesta:     25.51913  22.82873   0.00000  1       17
siesta:     30.17503  17.45226   0.00000  1       18
siesta:      4.56367   2.66461   0.00000  2       19
siesta:     32.50328  21.48508   0.00000  2       20
siesta:     34.83116  17.45226   0.00000  2       21
siesta:     37.15930  18.79590   0.00000  2       22
siesta:     32.50291  13.41944   0.00000  2       23
siesta:     34.83104  14.76308   0.00000  2       24
siesta:     30.17465   9.38661   0.00000  2       25
siesta:     32.50278  10.73026   0.00000  2       26
siesta:     27.84639   5.35379   0.00000  2       27
siesta:     30.17453   6.69743   0.00000  2       28
siesta:     27.84714  21.48508   0.00000  2       29
siesta:     30.17527  22.82873   0.00000  2       30
siesta:      6.89168   1.32097   0.00000  2       31
siesta:      9.21981   2.66461   0.00000  2       32
siesta:     13.87595   2.66461   0.00000  2       33
siesta:     16.20396   1.32097   0.00000  2       34
siesta:     18.53210   2.66461   0.00000  2       35
siesta:     23.19013   2.66461   0.00000  2       36
siesta:     25.51813   1.32097   0.00000  2       37
siesta:     27.84627   2.66461   0.00000  2       38
siesta:      4.56380   5.35379   0.00000  2       39
siesta:      9.21994   5.35379   0.00000  2       40
siesta:     11.54807   6.69743   0.00000  2       41
siesta:     13.87608   5.35379   0.00000  2       42
siesta:     18.53411   5.35379   0.00000  2       43
siesta:     20.86224   6.69743   0.00000  2       44
siesta:     23.19025   5.35379   0.00000  2       45
siesta:      9.22019  10.73026   0.00000  2       46
siesta:     11.54820   9.38661   0.00000  2       47
siesta:     13.87633  10.73026   0.00000  2       48
siesta:     18.53247  10.73026   0.00000  2       49
siesta:     20.86237   9.38661   0.00000  2       50
siesta:     23.19050  10.73026   0.00000  2       51
siesta:      9.22031  13.41944   0.00000  2       52
siesta:     13.87645  13.41944   0.00000  2       53
siesta:     16.20459  14.76308   0.00000  2       54
siesta:     18.53448  13.41944   0.00000  2       55
siesta:     13.87670  18.79590   0.00000  2       56
siesta:     16.20471  17.45226   0.00000  2       57
siesta:     18.53284  18.79590   0.00000  2       58
siesta:     13.87683  21.48508   0.00000  2       59
siesta:     18.53486  21.48508   0.00000  2       60
siesta:     20.86299  22.82873   0.00000  2       61
siesta:     27.84664  10.73026   0.00000  2       62
siesta:     23.19063  13.41944   0.00000  2       63
siesta:     25.51876  14.76308   0.00000  2       64
siesta:     23.19088  18.79590   0.00000  2       65
siesta:     27.84677  13.41944   0.00000  2       66
siesta:     25.51888  17.45226   0.00000  2       67
siesta:     27.84702  18.79590   0.00000  2       68
siesta:     23.19100  21.48508   0.00000  2       69
siesta:     32.50316  18.79590   0.00000  2       70
siesta:     37.16131  21.48508   0.00000  2       71
siesta:     39.48945  22.82873   0.00000  2       72

siesta: System type = slab      

initatomlists: Number of atoms, orbitals, and projectors:     72   936  1152

siesta: ******************** Simulation parameters ****************************
siesta:
siesta: The following are some of the parameters of the simulation.
siesta: A complete list of the parameters used, including default values,
siesta: can be found in file out.fdf
siesta:
redata: Non-Collinear-spin run           =     F
redata: SpinPolarized (Up/Down) run      =     F
redata: Number of spin components        =     1
redata: Long output                      =     F
redata: Number of Atomic Species         =        2
redata: Charge density info will appear in .RHO file
redata: Write Mulliken Pop.              =     NO
redata: Mesh Cutoff                      =   200.0000  Ry
redata: Net charge of the system         =     0.0000 |e|
redata: Max. number of SCF Iter          =      500
redata: SCF convergence failure will abort job
redata: Performing Pulay mixing using    =    10 iterations
redata: Mix DM in first SCF step ?       =     F
redata: Write Pulay info on disk?        =     F
redata: Discard 1st Pulay DM after  kick =     F
redata: New DM Mixing Weight             =     0.0500
redata: New DM Occupancy tolerance       = 0.000000000001
redata: No kicks to SCF
redata: DM Mixing Weight for Kicks       =     0.5000
redata: DM Tolerance for SCF             =     0.000100
redata: Require Energy convergence for SCF =     F
redata: DM Energy tolerance for SCF      =     0.000100 eV
redata: Require Harris convergence for SCF =     F
redata: DM Harris energy tolerance for SCF =     0.000100 eV
redata: Using Saved Data (generic)   =     F
redata: Use continuation files for DM    =     T
redata: Neglect nonoverlap interactions  =     F
redata: Method of Calculation            =     Diagonalization
redata: Divide and Conquer               =     T
redata: Electronic Temperature           =     0.0019  Ry
redata: Fix the spin of the system       =     F
redata: Dynamics option                  =     Verlet MD run
redata: Initial MD time step             =        1
redata:   Final MD time step             =        1
redata: Length of MD time step           =     1.0000  fs
redata: Initial Temperature of MD run    =     0.0000  K
redata: Perform a MD quench              =     F
redata: ***********************************************************************
Total number of electrons:   270.000000
Total ionic charge:   270.000000

* ProcessorY, Blocksize:    2  24

k-point displ. along   1 input, could be:     0.00    0.50
k-point displ. along   2 input, could be:     0.00    0.50
 Kpoints in:          364 . Kpoints trimmed:          352

siesta: k-grid: Number of k-points =   352
siesta: k-grid: Cutoff (effective) =     5.000 Ang
siesta: k-grid: Supercell and displacements
siesta: k-grid:   26   0   0      0.000
siesta: k-grid:    0  26   0      0.000
siesta: k-grid:    0   0   1      0.000
Naive supercell factors:     2    2    2

superc: Internal auxiliary supercell:     2 x     2 x     2  =       8
superc: Number of atoms, orbitals, and projectors:    576   7488   9216

* Maximum dynamic memory allocated =     6 MB

siesta:                 ==============================
                            Begin MD step =      1
                        ==============================

superc: Internal auxiliary supercell:     2 x     2 x     2  =       8
superc: Number of atoms, orbitals, and projectors:    576   7488   9216

outcell: Unit cell vectors (Ang):
       14.785000    0.000000    0.000000
        7.393000   12.805052    0.000000
        0.000000    0.000000   10.000000

outcell: Cell vector modules (Ang)   :   14.785000   14.786000   10.000000
outcell: Cell angles (23,13,12) (deg):     90.0000     90.0000     60.0000
outcell: Cell volume (Ang**3)        :   1893.2269
New_DM. Step:     1
Initializing Density Matrix...

InitMesh: MESH =   120 x   120 x    90 =     1296000
InitMesh: Mesh cutoff (required, used) =   200.000   223.865 Ry

* Maximum dynamic memory allocated =   219 MB

stepf: Fermi-Dirac step function

siesta: Program's energy decomposition (eV):
siesta: Ebs     =     -4321.959951
siesta: Eions   =     16097.990269
siesta: Ena     =      3564.257289
siesta: Ekin    =      5428.893495
siesta: Enl     =       374.734306
siesta: DEna    =        -0.000007
siesta: DUscf   =         0.000000
siesta: DUext   =         0.000000
siesta: Exc     =     -3983.848372
siesta: eta*DQ  =         0.000000
siesta: Emadel  =         0.000000
siesta: Emeta   =         0.000000
siesta: Emolmec =         0.000000
siesta: Ekinion =         0.000000
siesta: Eharris =    -10631.381578
siesta: Etot    =    -10713.953559
siesta: FreeEng =    -10713.953559

siesta: iscf   Eharris(eV)      E_KS(eV)   FreeEng(eV)   dDmax  Ef(eV)
siesta:    1   -10631.3816   -10713.9536   -10713.9536  1.8569 -8.6088
timer: Routine,Calls,Time,% = IterSCF        1    6857.950  99.83
elaps: Routine,Calls,Wall,% = IterSCF        1     858.277  99.83
siesta:    2   -10643.4581   -10565.4575   -10565.4806  0.4688 -3.8449
siesta:    3   -10598.1779   -10631.0091   -10631.0498  0.6828 -5.9923
siesta:    4   -10597.7178   -10630.6555   -10630.6940  0.6755 -6.0007
siesta:    5   -10592.6953   -10597.1918   -10597.2301  0.1829 -5.7680
siesta:    6   -10594.2732   -10594.0900   -10594.1312  0.1155 -5.9142
siesta:    7   -10592.2263   -10590.7510   -10590.7906  0.0235 -5.9968
siesta:    8   -10592.0470   -10590.6000   -10590.6395  0.0060 -6.0590
siesta:    9   -10592.0419   -10591.1423   -10591.1809  0.0041 -6.0455
siesta:   10   -10592.0423   -10591.6524   -10591.6908  0.0025 -6.0373
siesta:   11   -10592.0406   -10591.8190   -10591.8573  0.0015 -6.0333
siesta:   12   -10592.0387   -10592.0719   -10592.1103  0.0006 -6.0282
siesta:   13   -10592.0386   -10592.0660   -10592.1047  0.0004 -6.0290
siesta:   14   -10592.0386   -10592.0550   -10592.0937  0.0003 -6.0289
siesta:   15   -10592.0386   -10592.0509   -10592.0896  0.0001 -6.0290
siesta:   16   -10592.0386   -10592.0535   -10592.0922  0.0001 -6.0290

siesta: E_KS(eV) =           -10592.0414

siesta: E_KS - E_eggbox =    -10592.0414

siesta: Atomic forces (eV/Ang):
----------------------------------------
   Tot    0.259636   -0.105850    0.000000
----------------------------------------
   Max    5.344484
   Res    1.996208    sqrt( Sum f_i^2 / 3N )
----------------------------------------
   Max    5.344484    constrained

Stress-tensor-Voigt (kbar):     -199.50     -188.94       -0.50       -0.94        0.00        0.00
(Free)E + p*V (eV/cell)   -10438.8851
Target enthalpy (eV/cell)   -10592.0801

siesta: Stress tensor (static) (eV/Ang**3):
        -0.124514   -0.000590    0.000000
        -0.000590   -0.117926    0.000000
         0.000000    0.000000   -0.000312

siesta: Pressure (static):        129.64533406  kBar

siesta: Stress tensor (total) (eV/Ang**3):
        -0.124514   -0.000590    0.000000
        -0.000590   -0.117926    0.000000
         0.000000    0.000000   -0.000312

siesta: Pressure (total):        129.64533406  kBar

siesta: Temp_ion =       0.000 K

* Maximum dynamic memory allocated =   234 MB

siesta: Program's energy decomposition (eV):
siesta: Ebs     =     -3486.889531
siesta: Eions   =     16097.990269
siesta: Ena     =      3564.257289
siesta: Ekin    =      6957.110187
siesta: Enl     =      -584.156023
siesta: DEna    =      -373.129789
siesta: DUscf   =        42.775078
siesta: DUext   =         0.000000
siesta: Exc     =     -4100.907855
siesta: eta*DQ  =         0.000000
siesta: Emadel  =         0.000000
siesta: Emeta   =         0.000000
siesta: Emolmec =         0.000000
siesta: Ekinion =         0.000000
siesta: Eharris =    -10592.038560
siesta: Etot    =    -10592.041382
siesta: FreeEng =    -10592.080095

siesta: Final energy (eV):
siesta:  Band Struct. =   -3486.889531
siesta:       Kinetic =    6957.110187
siesta:       Hartree =   20270.990495
siesta:    Ext. field =       0.000000
siesta:   Exch.-corr. =   -4100.907855
siesta:  Ion-electron =  -46820.488398
siesta:       Ion-ion =   13101.254189
siesta:       Ekinion =       0.000000
siesta:         Total =  -10592.041382

siesta: Atomic forces (eV/Ang):
siesta:      1    0.005584    5.307803    0.000000
siesta:      2    0.025122   -5.313353    0.000000
siesta:      3    0.015680    5.299671    0.000000
siesta:      4   -0.009601    5.315163    0.000000
siesta:      5   -0.004652   -5.326675    0.000000
siesta:      6    0.027030   -5.342361    0.000000
siesta:      7   -0.005829   -5.327228    0.000000
siesta:      8    0.000195    5.336796    0.000000
siesta:      9    0.024216    5.330336    0.000000
siesta:     10   -0.008508   -5.326693    0.000000
siesta:     11   -0.009645   -5.327414    0.000000
siesta:     12    0.005468    5.337473    0.000000
siesta:     13    0.027471   -5.312588    0.000000
siesta:     14    0.018749    5.329134    0.000000
siesta:     15   -0.012548    5.344484    0.000000
siesta:     16   -0.003001   -5.326486    0.000000
siesta:     17   -0.002562   -5.296810    0.000000
siesta:     18    0.016080    5.330269    0.000000
siesta:     19    2.563136    1.288472    0.000000
siesta:     20   -2.564767   -1.289519    0.000000
siesta:     21    0.004674    1.728653    0.000000
siesta:     22   -2.550833    1.278475    0.000000
siesta:     23    2.584435   -1.293061    0.000000
siesta:     24    0.018966   -1.738841    0.000000
siesta:     25    0.004544    1.726624    0.000000
siesta:     26   -2.555896    1.278494    0.000000
siesta:     27    2.586136   -1.291259    0.000000
siesta:     28    0.017790   -1.739561    0.000000
siesta:     29    2.583225   -1.288237    0.000000
siesta:     30    0.001537   -1.713256    0.000000
siesta:     31    0.006265    1.706970    0.000000
siesta:     32   -2.573155    1.282218    0.000000
siesta:     33    2.566699    1.288258    0.000000
siesta:     34    0.009644    1.708373    0.000000
siesta:     35   -2.534690    1.268173    0.000000
siesta:     36    2.560305    1.288404    0.000000
siesta:     37    0.008736    1.707483    0.000000
siesta:     38   -2.561031    1.275629    0.000000
siesta:     39   -2.581597   -1.289189    0.000000
siesta:     40    2.581753   -1.291608    0.000000
siesta:     41    0.005767   -1.735127    0.000000
siesta:     42   -2.564548   -1.294571    0.000000
siesta:     43    2.544032   -1.275551    0.000000
siesta:     44    0.000348   -1.733284    0.000000
siesta:     45   -2.565678   -1.295095    0.000000
siesta:     46    2.564384    1.294086    0.000000
siesta:     47    0.003644    1.728190    0.000000
siesta:     48   -2.574200    1.284583    0.000000
siesta:     49    2.599171    1.286285    0.000000
siesta:     50   -0.023884    1.733371    0.000000
siesta:     51   -2.579487    1.285775    0.000000
siesta:     52   -2.580755   -1.289016    0.000000
siesta:     53    2.590453   -1.291226    0.000000
siesta:     54    0.031931   -1.740621    0.000000
siesta:     55   -2.603130   -1.288472    0.000000
siesta:     56    2.560955    1.292181    0.000000
siesta:     57    0.006606    1.726591    0.000000
siesta:     58   -2.532900    1.271044    0.000000
siesta:     59   -2.548690   -1.296204    0.000000
siesta:     60    2.545797   -1.275139    0.000000
siesta:     61   -0.002211   -1.715201    0.000000
siesta:     62    2.565515    1.292762    0.000000
siesta:     63    2.583046   -1.290418    0.000000
siesta:     64    0.004492   -1.735578    0.000000
siesta:     65    2.562038    1.292765    0.000000
siesta:     66   -2.569134   -1.294028    0.000000
siesta:     67    0.001910    1.728114    0.000000
siesta:     68   -2.571832    1.285603    0.000000
siesta:     69   -2.569557   -1.290512    0.000000
siesta:     70    2.564631    1.292237    0.000000
siesta:     71    2.544315   -1.272969    0.000000
siesta:     72   -0.018518   -1.709639    0.000000
siesta: ----------------------------------------
siesta:    Tot    0.259636   -0.105850    0.000000

siesta: Stress tensor (static) (eV/Ang**3):
siesta:    -0.124514   -0.000590    0.000000
siesta:    -0.000590   -0.117926    0.000000
siesta:     0.000000    0.000000   -0.000312

siesta: Cell volume =       1893.226895 Ang**3

siesta: Pressure (static):
siesta:                Solid            Molecule  Units
siesta:           0.00088129          0.00128739  Ry/Bohr**3
siesta:           0.08091738          0.11820375  eV/Ang**3
siesta:         129.64533406        189.38533943  kBar
(Free)E+ p_basis*V_orbitals  =      -10555.655316
(Free)Eharris+ p_basis*V_orbitals  =      -10555.640371

siesta: Electric dipole (a.u.)  =    0.000000    0.000000    0.000000
siesta: Electric dipole (Debye) =    0.000000    0.000000    0.000000

* Maximum dynamic memory allocated : Node    0 =   234 MB
* Maximum dynamic memory allocated : Node    1 =    85 MB
* Maximum dynamic memory allocated : Node    2 =    87 MB
* Maximum dynamic memory allocated : Node    3 =   221 MB
* Maximum dynamic memory allocated : Node    4 =   233 MB
* Maximum dynamic memory allocated : Node    5 =    83 MB
* Maximum dynamic memory allocated : Node    6 =    87 MB
* Maximum dynamic memory allocated : Node    7 =   215 MB

* Maximum memory occured during matrixMtoO                    

timer: CPU execution times:
timer:  Routine       Calls   Time/call    Tot.time        %
timer:  siesta            1  109089.380  109089.380   100.00
timer:  Setup             1       3.035       3.035     0.00
timer:  bands             1       0.010       0.010     0.00
timer:  writewave         1       0.017       0.017     0.00
timer:  KSV_init          1       0.001       0.001     0.00
timer:  IterMD            1  109078.232  109078.232    99.99
timer:  hsparse           1       0.392       0.392     0.00
timer:  overlap           1       7.777       7.777     0.01
timer:  IterSCF          16    6804.005  108864.082    99.79
timer:  kinefsm           2       4.048       8.097     0.01
timer:  nlefsm            2      21.257      42.513     0.04
timer:  DHSCF            17     123.745    2103.671     1.93
timer:  DHSCF1            1       0.987       0.987     0.00
timer:  DHSCF2            1      43.490      43.490     0.04
timer:  REORD           138       0.010       1.392     0.00
timer:  POISON           18       2.247      40.446     0.04
timer:  DHSCF3           17     118.651    2017.072     1.85
timer:  rhoofd           17      23.232     394.949     0.36
timer:  cellXC           17       3.532      60.048     0.06
timer:  vmat             17      58.753     998.800     0.92
timer:  MolMec            2       0.000       0.000     0.00
timer:  diagon           16    6678.601  106857.612    97.95
timer:  c-eigval       5632       6.694   37702.778    34.56
timer:  c-buildHS      5632       0.125     704.644     0.65
timer:  cdiag         11264       6.901   77738.228    71.26
timer:  cdiag1        11264       0.428    4816.147     4.41
timer:  cdiag2        11264       1.904   21451.159    19.66
timer:  cdiag3        11264       3.961   44618.030    40.90
timer:  cdiag4        11264       0.229    2578.433     2.36
timer:  c-eigvec       5632       7.311   41173.963    37.74
timer:  c-buildD       5632       4.960   27934.736    25.61
timer:  DHSCF4            1      41.193      41.193     0.04
timer:  dfscf             1      38.557      38.557     0.04
timer:  overfsm           1       0.465       0.465     0.00
timer:  optical           1       7.097       7.097     0.01
  

elaps: ELAPSED times:
elaps:  Routine       Calls   Time/call    Tot.time        %
elaps:  siesta            1   13652.062   13652.062   100.00
elaps:  Setup             1       0.379       0.379     0.00
elaps:  bands             1       0.001       0.001     0.00
elaps:  writewave         1       0.002       0.002     0.00
elaps:  KSV_init          1       0.000       0.000     0.00
elaps:  IterMD            1   13650.669   13650.669    99.99
elaps:  hsparse           1       0.050       0.050     0.00
elaps:  overlap           1       0.978       0.978     0.01
elaps:  IterSCF          16     851.493   13623.881    99.79
elaps:  kinefsm           2       0.507       1.014     0.01
elaps:  nlefsm            2       2.776       5.553     0.04
elaps:  DHSCF            17      15.713     267.123     1.96
elaps:  DHSCF1            1       0.128       0.128     0.00
elaps:  DHSCF2            1       5.435       5.435     0.04
elaps:  REORD           138       0.001       0.181     0.00
elaps:  POISON           18       0.282       5.078     0.04
elaps:  DHSCF3           17      14.844     252.340     1.85
elaps:  rhoofd           17       4.825      82.031     0.60
elaps:  cellXC           17       0.441       7.501     0.05
elaps:  vmat             17       7.349     124.940     0.92
elaps:  MolMec            2       0.000       0.000     0.00
elaps:  diagon           16     835.830   13373.274    97.96
elaps:  c-eigval       5632       0.838    4717.213    34.55
elaps:  c-buildHS      5632       0.017      96.994     0.71
elaps:  cdiag         11264       0.849    9561.912    70.04
elaps:  cdiag1        11264       0.053     594.285     4.35
elaps:  cdiag2        11264       0.238    2684.071    19.66
elaps:  cdiag3        11264       0.496    5590.154    40.95
elaps:  cdiag4        11264       0.029     322.952     2.37
elaps:  c-eigvec       5632       0.889    5007.582    36.68
elaps:  c-buildD       5632       0.647    3642.248    26.68
elaps:  DHSCF4            1       9.098       9.098     0.07
elaps:  dfscf             1       8.588       8.588     0.06
elaps:  overfsm           1       0.061       0.061     0.00
elaps:  optical           1       0.000       0.000     0.00
  
>> End of run:   3-DEC-2015  20:08:53
