Siesta Version:                                        siesta-3.2-pl-3
Architecture  : x86_64-unknown-linux-gnu--unknown
Compiler flags: mpiifort -g -O2 -fPIC -xSSE4.1 -fp-model source -shared-intel 
PARALLEL version

* Running on    8 nodes in parallel
>> Start of run:  28-NOV-2015   7:11:11

                           ***********************       
                           *  WELCOME TO SIESTA  *       
                           ***********************       

reinit: Reading from standard input
************************** Dump of input data file ****************************
#(1) General system descriptors
SystemName            GRP_doping    # Descriptive name of the system
SystemLabel           GRP_doping    # Short name for naming files
%include STRUCT.fdf
%include KPT.fdf
%include BASIS.fdf
#%include TS.fdf # for transiesta calculation
#(4) DFT, Grid, SCF
XC.functional         GGA           # LDA or GGA (default = LDA)
XC.authors            PBE           # CA (Ceperley-Aldr) = PZ
                                    #    (Perdew-Zunger) - LDA - Default
                                    # PW92 (Perdew-Wang-92) - LDA
                                    # PBE (Perdew-Burke-Ernzerhof) - GGA
MeshCutoff            200.000000    Ry      # Default: 50.0 Ry ~ 0.444 Bohr
                                    #         100.0 Ry ~ 0.314 Bohr
MaxSCFIterations      500           # Default: 50
DM.MixingWeight       0.05          # Default: 0.25
DM.NumberPulay        10            # Default: 0
DM.PulayOnFile        F             # SystemLabel.P1, SystemLabel.P2
DM.Tolerance          1.d-4         # Default: 1.d-4
DM.UseSaveDM          .true.        # because of the bug
SCFMustConverge       .true.
NeglNonOverlapInt     F             # Default: F
#(5) Eigenvalue problem: order-N or diagonalization
SolutionMethod        Diagon        # or Transiesta
ElectronicTemperature 300.0 K       # Default: 300.0 K
#(6) Molecular dynamics and relaxations
#MD.TypeOfRun          CG            # Type of dynamics:
#MD.VariableCell       F
#MD.NumCGsteps         0           # 0 for single-point / 100 for gopt
#MD.MaxCGDispl         0.2 Bohr      # Default: 0.2 Bohr
#MD.MaxForceTol        0.02 eV/Ang   # Default: 0.04 eV/Ang
#MD.MaxStressTol       1.0 GPa       # Default: 1.0 GPa
# Geometry Constraints
#%block GeometryConstraints
#	position from 1 to 44
#%endblock GeometryConstraints
************************** End of input data file *****************************

reinit: -----------------------------------------------------------------------
reinit: System Name: GRP_doping
reinit: -----------------------------------------------------------------------
reinit: System Label: GRP_doping                                                  
reinit: -----------------------------------------------------------------------

initatom: Reading input for the pseudopotentials and atomic orbitals ----------
 Species number:            1  Label: C Atomic number:           6
 Species number:            2  Label: B Atomic number:           5
Ground state valence configuration:   2s02  2p02
Reading pseudopotential information in formatted form from C.psf

Valence configuration for pseudopotential generation:
2s( 2.00) rc: 1.54
2p( 2.00) rc: 1.54
3d( 0.00) rc: 1.54
4f( 0.00) rc: 1.54
Ground state valence configuration:   2s02  2p01
Reading pseudopotential information in formatted form from B.psf

Valence configuration for pseudopotential generation:
2s( 2.00) rc: 1.74
2p( 1.00) rc: 1.74
3d( 0.00) rc: 1.74
4f( 0.00) rc: 1.74
For C, standard SIESTA heuristics set lmxkb to 3
 (one more than the basis l, including polarization orbitals).
Use PS.lmax or PS.KBprojectors blocks to override.
For B, standard SIESTA heuristics set lmxkb to 3
 (one more than the basis l, including polarization orbitals).
Use PS.lmax or PS.KBprojectors blocks to override.

<basis_specs>
===============================================================================
C                    Z=   6    Mass=  12.010        Charge= 0.17977+309
Lmxo=1 Lmxkb= 3    BasisType=split      Semic=F
L=0  Nsemic=0  Cnfigmx=2
          n=1  nzeta=2  polorb=0
            splnorm:   0.15000    
               vcte:    0.0000    
               rinn:    0.0000    
                rcs:    0.0000      0.0000    
            lambdas:    1.0000      1.0000    
L=1  Nsemic=0  Cnfigmx=2
          n=1  nzeta=2  polorb=1
            splnorm:   0.15000    
               vcte:    0.0000    
               rinn:    0.0000    
                rcs:    0.0000      0.0000    
            lambdas:    1.0000      1.0000    
-------------------------------------------------------------------------------
L=0  Nkbl=1  erefs: 0.17977+309
L=1  Nkbl=1  erefs: 0.17977+309
L=2  Nkbl=1  erefs: 0.17977+309
L=3  Nkbl=1  erefs: 0.17977+309
===============================================================================
</basis_specs>

atom: Called for C                     (Z =   6)

read_vps: Pseudopotential generation method:
read_vps: ATM3      Troullier-Martins                       
Total valence charge:    4.00000

read_vps: Pseudopotential includes a core correction:
read_vps: Pseudo-core for xc-correction

xc_check: Exchange-correlation functional:
xc_check: GGA Perdew, Burke & Ernzerhof 1996
V l=0 = -2*Zval/r beyond r=  1.5227
V l=1 = -2*Zval/r beyond r=  1.5227
V l=2 = -2*Zval/r beyond r=  1.5227
V l=3 = -2*Zval/r beyond r=  1.5038
All V_l potentials equal beyond r=  1.5227
This should be close to max(r_c) in ps generation
All pots = -2*Zval/r beyond r=  1.5227

VLOCAL1: 99.0% of the norm of Vloc inside     18.722 Ry
VLOCAL1: 99.9% of the norm of Vloc inside     42.668 Ry
atom: Maximum radius for 4*pi*r*r*local-pseudopot. charge    1.83678
atom: Maximum radius for r*vlocal+2*Zval:    1.58088
GHOST: No ghost state for L =  0
GHOST: No ghost state for L =  1
GHOST: No ghost state for L =  2
GHOST: No ghost state for L =  3

KBgen: Kleinman-Bylander projectors: 
   l= 0   rc=  1.704034   el= -1.009801   Ekb=  5.335044   kbcos=  0.316824
   l= 1   rc=  1.704034   el= -0.388707   Ekb= -3.785862   kbcos= -0.366464
   l= 2   rc=  1.791422   el=  0.001971   Ekb= -0.970471   kbcos= -0.009212
   l= 3   rc=  1.859892   el=  0.003065   Ekb= -0.399525   kbcos= -0.001223

KBgen: Total number of  Kleinman-Bylander projectors:   16
atom: -------------------------------------------------------------------------

atom: SANKEY-TYPE ORBITALS:
atom: Selected multiple-zeta basis: split     

SPLIT: Orbitals with angular momentum L= 0

SPLIT: Basis orbitals for state 2s

SPLIT: PAO cut-off radius determined from an
SPLIT: energy shift=  0.007350 Ry

   izeta = 1
                 lambda =    1.000000
                     rc =    4.632753
                 energy =   -1.002270
                kinetic =    0.855760
    potential(screened) =   -1.858031
       potential(ionic) =   -5.417575

   izeta = 2
                 rmatch =    3.431921
              splitnorm =    0.150000
                 energy =   -0.867111
                kinetic =    1.300804
    potential(screened) =   -2.167915
       potential(ionic) =   -5.962684

SPLIT: Orbitals with angular momentum L= 1

SPLIT: Basis orbitals for state 2p

SPLIT: PAO cut-off radius determined from an
SPLIT: energy shift=  0.007350 Ry

   izeta = 1
                 lambda =    1.000000
                     rc =    5.658549
                 energy =   -0.381140
                kinetic =    2.399701
    potential(screened) =   -2.780841
       potential(ionic) =   -6.206085

   izeta = 2
                 rmatch =    3.653288
              splitnorm =    0.150000
                 energy =   -0.249149
                kinetic =    3.542762
    potential(screened) =   -3.791911
       potential(ionic) =   -7.581078

POLgen: Perturbative polarization orbital with L=  2

POLgen: Polarization orbital for state 2p

   izeta = 1
                     rc =    5.658549
                 energy =    1.109913
                kinetic =    2.304789
    potential(screened) =   -1.194876
       potential(ionic) =   -4.013592
atom: Total number of Sankey-type orbitals: 13

atm_pop: Valence configuration (for local Pseudopot. screening):
 2s( 2.00)                                                            
 2p( 2.00)                                                            
Vna: chval, zval:    4.00000   4.00000

Vna:  Cut-off radius for the neutral-atom potential:   5.658549
comcore: Pseudo-core radius Rcore=  1.791422

atom: _________________________________________________________________________

<basis_specs>
===============================================================================
B                    Z=   5    Mass=  10.810        Charge= 0.17977+309
Lmxo=1 Lmxkb= 3    BasisType=split      Semic=F
L=0  Nsemic=0  Cnfigmx=2
          n=1  nzeta=2  polorb=0
            splnorm:   0.15000    
               vcte:    0.0000    
               rinn:    0.0000    
                rcs:    0.0000      0.0000    
            lambdas:    1.0000      1.0000    
L=1  Nsemic=0  Cnfigmx=2
          n=1  nzeta=2  polorb=1
            splnorm:   0.15000    
               vcte:    0.0000    
               rinn:    0.0000    
                rcs:    0.0000      0.0000    
            lambdas:    1.0000      1.0000    
-------------------------------------------------------------------------------
L=0  Nkbl=1  erefs: 0.17977+309
L=1  Nkbl=1  erefs: 0.17977+309
L=2  Nkbl=1  erefs: 0.17977+309
L=3  Nkbl=1  erefs: 0.17977+309
===============================================================================
</basis_specs>

atom: Called for B                     (Z =   5)

read_vps: Pseudopotential generation method:
read_vps: ATM3      Troullier-Martins                       
Total valence charge:    3.00000

read_vps: Pseudopotential includes a core correction:
read_vps: Pseudo-core for xc-correction

xc_check: Exchange-correlation functional:
xc_check: GGA Perdew, Burke & Ernzerhof 1996
V l=0 = -2*Zval/r beyond r=  1.7165
V l=1 = -2*Zval/r beyond r=  1.7165
V l=2 = -2*Zval/r beyond r=  1.7165
V l=3 = -2*Zval/r beyond r=  1.6951
All V_l potentials equal beyond r=  1.7165
This should be close to max(r_c) in ps generation
All pots = -2*Zval/r beyond r=  1.7165

VLOCAL1: 99.0% of the norm of Vloc inside     14.733 Ry
VLOCAL1: 99.9% of the norm of Vloc inside     33.577 Ry
atom: Maximum radius for 4*pi*r*r*local-pseudopot. charge    2.04484
atom: Maximum radius for r*vlocal+2*Zval:    1.75994
GHOST: No ghost state for L =  0
GHOST: No ghost state for L =  1
GHOST: No ghost state for L =  2
GHOST: No ghost state for L =  3

KBgen: Kleinman-Bylander projectors: 
   l= 0   rc=  1.897051   el= -0.693730   Ekb=  4.595746   kbcos=  0.286105
   l= 1   rc=  1.920920   el= -0.265236   Ekb= -2.350715   kbcos= -0.315747
   l= 2   rc=  2.044840   el=  0.002055   Ekb= -0.690767   kbcos= -0.013822
   l= 3   rc=  2.149707   el=  0.003188   Ekb= -0.315358   kbcos= -0.002055

KBgen: Total number of  Kleinman-Bylander projectors:   16
atom: -------------------------------------------------------------------------

atom: SANKEY-TYPE ORBITALS:
atom: Selected multiple-zeta basis: split     

SPLIT: Orbitals with angular momentum L= 0

SPLIT: Basis orbitals for state 2s

SPLIT: PAO cut-off radius determined from an
SPLIT: energy shift=  0.007350 Ry

   izeta = 1
                 lambda =    1.000000
                     rc =    5.422032
                 energy =   -0.686029
                kinetic =    0.576707
    potential(screened) =   -1.262736
       potential(ionic) =   -3.271094

   izeta = 2
                 rmatch =    4.222573
              splitnorm =    0.150000
                 energy =   -0.602132
                kinetic =    0.858975
    potential(screened) =   -1.461107
       potential(ionic) =   -3.582536

SPLIT: Orbitals with angular momentum L= 1

SPLIT: Basis orbitals for state 2p

SPLIT: PAO cut-off radius determined from an
SPLIT: energy shift=  0.007350 Ry

   izeta = 1
                 lambda =    1.000000
                     rc =    6.790259
                 energy =   -0.258578
                kinetic =    1.481412
    potential(screened) =   -1.739989
       potential(ionic) =   -3.657461

   izeta = 2
                 rmatch =    4.608740
              splitnorm =    0.150000
                 energy =   -0.173757
                kinetic =    2.186690
    potential(screened) =   -2.360447
       potential(ionic) =   -4.464260

POLgen: Perturbative polarization orbital with L=  2

POLgen: Polarization orbital for state 2p

   izeta = 1
                     rc =    6.790259
                 energy =    0.684082
                kinetic =    1.471481
    potential(screened) =   -0.787399
       potential(ionic) =   -2.406985
atom: Total number of Sankey-type orbitals: 13

atm_pop: Valence configuration (for local Pseudopot. screening):
 2s( 2.00)                                                            
 2p( 1.00)                                                            
Vna: chval, zval:    3.00000   3.00000

Vna:  Cut-off radius for the neutral-atom potential:   6.790259
comcore: Pseudo-core radius Rcore=  2.122997

atom: _________________________________________________________________________

prinput: Basis input ----------------------------------------------------------

PAO.BasisType split     

%block ChemicalSpeciesLabel
    1    6 C                       # Species index, atomic number, species label
    2    5 B                       # Species index, atomic number, species label
%endblock ChemicalSpeciesLabel

%block PAO.Basis                 # Define Basis set
C                     2                    # Species label, number of l-shells
 n=2   0   2                         # n, l, Nzeta 
   4.633      3.432   
   1.000      1.000   
 n=2   1   2 P   1                   # n, l, Nzeta, Polarization, NzetaPol
   5.659      3.653   
   1.000      1.000   
B                     2                    # Species label, number of l-shells
 n=2   0   2                         # n, l, Nzeta 
   5.422      4.223   
   1.000      1.000   
 n=2   1   2 P   1                   # n, l, Nzeta, Polarization, NzetaPol
   6.790      4.609   
   1.000      1.000   
%endblock PAO.Basis

prinput: ----------------------------------------------------------------------

coor:   Atomic-coordinates input format  =     Cartesian coordinates
coor:                                          (in Angstroms)

siesta: Atomic coordinates (Bohr) and species
siesta:      2.23554   1.32097   0.00000  1        1
siesta:     32.50328  21.48508   0.00000  1        2
siesta:     34.83141  22.82873   0.00000  1        3
siesta:     34.83116  17.45226   0.00000  1        4
siesta:     37.15930  18.79590   0.00000  1        5
siesta:     32.50291  13.41944   0.00000  1        6
siesta:     34.83104  14.76308   0.00000  1        7
siesta:     30.17465   9.38661   0.00000  1        8
siesta:     32.50278  10.73026   0.00000  1        9
siesta:     27.84639   5.35379   0.00000  1       10
siesta:     30.17453   6.69743   0.00000  1       11
siesta:     27.84714  21.48508   0.00000  1       12
siesta:     30.17527  22.82873   0.00000  1       13
siesta:      6.89168   1.32097   0.00000  1       14
siesta:      9.21981   2.66461   0.00000  1       15
siesta:     11.54782   1.32097   0.00000  1       16
siesta:     13.87595   2.66461   0.00000  1       17
siesta:     16.20396   1.32097   0.00000  1       18
siesta:     18.53210   2.66461   0.00000  1       19
siesta:     23.19013   2.66461   0.00000  1       20
siesta:     25.51813   1.32097   0.00000  1       21
siesta:     27.84627   2.66461   0.00000  1       22
siesta:      4.56380   5.35379   0.00000  1       23
siesta:      6.89193   6.69743   0.00000  1       24
siesta:      9.21994   5.35379   0.00000  1       25
siesta:     11.54807   6.69743   0.00000  1       26
siesta:     13.87608   5.35379   0.00000  1       27
siesta:     18.53411   5.35379   0.00000  1       28
siesta:     20.86224   6.69743   0.00000  1       29
siesta:     23.19025   5.35379   0.00000  1       30
siesta:     25.51838   6.69743   0.00000  1       31
siesta:      9.22019  10.73026   0.00000  1       32
siesta:     11.54820   9.38661   0.00000  1       33
siesta:     13.87633  10.73026   0.00000  1       34
siesta:     18.53247  10.73026   0.00000  1       35
siesta:     20.86237   9.38661   0.00000  1       36
siesta:     23.19050  10.73026   0.00000  1       37
siesta:      9.22031  13.41944   0.00000  1       38
siesta:     11.54845  14.76308   0.00000  1       39
siesta:     13.87645  13.41944   0.00000  1       40
siesta:     16.20459  14.76308   0.00000  1       41
siesta:     18.53448  13.41944   0.00000  1       42
siesta:     20.86262  14.76308   0.00000  1       43
siesta:     13.87670  18.79590   0.00000  1       44
siesta:     16.20471  17.45226   0.00000  1       45
siesta:     18.53284  18.79590   0.00000  1       46
siesta:     13.87683  21.48508   0.00000  1       47
siesta:     16.20496  22.82873   0.00000  1       48
siesta:     18.53486  21.48508   0.00000  1       49
siesta:     20.86299  22.82873   0.00000  1       50
siesta:     27.84664  10.73026   0.00000  1       51
siesta:     23.19063  13.41944   0.00000  1       52
siesta:     25.51876  14.76308   0.00000  1       53
siesta:     23.19088  18.79590   0.00000  1       54
siesta:     27.84677  13.41944   0.00000  1       55
siesta:     30.17490  14.76308   0.00000  1       56
siesta:     25.51888  17.45226   0.00000  1       57
siesta:     27.84702  18.79590   0.00000  1       58
siesta:     23.19100  21.48508   0.00000  1       59
siesta:     25.51913  22.82873   0.00000  1       60
siesta:     32.50316  18.79590   0.00000  1       61
siesta:     37.16131  21.48508   0.00000  1       62
siesta:     39.48945  22.82873   0.00000  1       63
siesta:      4.56367   2.66461   0.00000  2       64
siesta:     20.86199   1.32097   0.00000  2       65
siesta:     16.20421   6.69743   0.00000  2       66
siesta:      6.89205   9.38661   0.00000  2       67
siesta:     16.20434   9.38661   0.00000  2       68
siesta:     11.54857  17.45226   0.00000  2       69
siesta:     25.51851   9.38661   0.00000  2       70
siesta:     20.86274  17.45226   0.00000  2       71
siesta:     30.17503  17.45226   0.00000  2       72

siesta: System type = slab      

initatomlists: Number of atoms, orbitals, and projectors:     72   936  1152

siesta: ******************** Simulation parameters ****************************
siesta:
siesta: The following are some of the parameters of the simulation.
siesta: A complete list of the parameters used, including default values,
siesta: can be found in file out.fdf
siesta:
redata: Non-Collinear-spin run           =     F
redata: SpinPolarized (Up/Down) run      =     F
redata: Number of spin components        =     1
redata: Long output                      =     F
redata: Number of Atomic Species         =        2
redata: Charge density info will appear in .RHO file
redata: Write Mulliken Pop.              =     NO
redata: Mesh Cutoff                      =   200.0000  Ry
redata: Net charge of the system         =     0.0000 |e|
redata: Max. number of SCF Iter          =      500
redata: SCF convergence failure will abort job
redata: Performing Pulay mixing using    =    10 iterations
redata: Mix DM in first SCF step ?       =     F
redata: Write Pulay info on disk?        =     F
redata: Discard 1st Pulay DM after  kick =     F
redata: New DM Mixing Weight             =     0.0500
redata: New DM Occupancy tolerance       = 0.000000000001
redata: No kicks to SCF
redata: DM Mixing Weight for Kicks       =     0.5000
redata: DM Tolerance for SCF             =     0.000100
redata: Require Energy convergence for SCF =     F
redata: DM Energy tolerance for SCF      =     0.000100 eV
redata: Require Harris convergence for SCF =     F
redata: DM Harris energy tolerance for SCF =     0.000100 eV
redata: Using Saved Data (generic)   =     F
redata: Use continuation files for DM    =     T
redata: Neglect nonoverlap interactions  =     F
redata: Method of Calculation            =     Diagonalization
redata: Divide and Conquer               =     T
redata: Electronic Temperature           =     0.0019  Ry
redata: Fix the spin of the system       =     F
redata: Dynamics option                  =     Verlet MD run
redata: Initial MD time step             =        1
redata:   Final MD time step             =        1
redata: Length of MD time step           =     1.0000  fs
redata: Initial Temperature of MD run    =     0.0000  K
redata: Perform a MD quench              =     F
redata: ***********************************************************************
Total number of electrons:   279.000000
Total ionic charge:   279.000000

* ProcessorY, Blocksize:    2  24

k-point displ. along   1 input, could be:     0.00    0.50
k-point displ. along   2 input, could be:     0.00    0.50
 Kpoints in:          364 . Kpoints trimmed:          352

siesta: k-grid: Number of k-points =   352
siesta: k-grid: Cutoff (effective) =     5.000 Ang
siesta: k-grid: Supercell and displacements
siesta: k-grid:   26   0   0      0.000
siesta: k-grid:    0  26   0      0.000
siesta: k-grid:    0   0   1      0.000
Naive supercell factors:     2    2    2

superc: Internal auxiliary supercell:     2 x     2 x     2  =       8
superc: Number of atoms, orbitals, and projectors:    576   7488   9216

* Maximum dynamic memory allocated =     6 MB

siesta:                 ==============================
                            Begin MD step =      1
                        ==============================

superc: Internal auxiliary supercell:     2 x     2 x     2  =       8
superc: Number of atoms, orbitals, and projectors:    576   7488   9216

outcell: Unit cell vectors (Ang):
       14.785000    0.000000    0.000000
        7.393000   12.805052    0.000000
        0.000000    0.000000   10.000000

outcell: Cell vector modules (Ang)   :   14.785000   14.786000   10.000000
outcell: Cell angles (23,13,12) (deg):     90.0000     90.0000     60.0000
outcell: Cell volume (Ang**3)        :   1893.2269
New_DM. Step:     1
Initializing Density Matrix...

InitMesh: MESH =   120 x   120 x    90 =     1296000
InitMesh: Mesh cutoff (required, used) =   200.000   223.865 Ry

* Maximum dynamic memory allocated =   207 MB

stepf: Fermi-Dirac step function

siesta: Program's energy decomposition (eV):
siesta: Ebs     =     -4460.487007
siesta: Eions   =     17250.500670
siesta: Ena     =      3769.800133
siesta: Ekin    =      5903.534022
siesta: Enl     =       294.313266
siesta: DEna    =        -0.000010
siesta: DUscf   =         0.000000
siesta: DUext   =         0.000000
siesta: Exc     =     -3961.819068
siesta: eta*DQ  =         0.000000
siesta: Emadel  =         0.000000
siesta: Emeta   =         0.000000
siesta: Emolmec =         0.000000
siesta: Ekinion =         0.000000
siesta: Eharris =    -11172.500844
siesta: Etot    =    -11244.672327
siesta: FreeEng =    -11244.672327

siesta: iscf   Eharris(eV)      E_KS(eV)   FreeEng(eV)   dDmax  Ef(eV)
siesta:    1   -11172.5008   -11244.6723   -11244.6723  1.8845 -8.1003
timer: Routine,Calls,Time,% = IterSCF        1    6718.188  99.83
elaps: Routine,Calls,Wall,% = IterSCF        1     841.172  99.87
siesta:    2   -11190.5636   -11125.4236   -11125.4568  0.5871 -3.8350
siesta:    3   -11152.8695   -11162.0268   -11162.0489  0.4758 -5.4391
siesta:    4   -11150.2347   -11161.3011   -11161.3184  0.4561 -5.4567
siesta:    5   -11147.0514   -11154.3241   -11154.3434  0.3028 -5.7690
siesta:    6   -11146.8994   -11147.5935   -11147.6182  0.1911 -5.7175
siesta:    7   -11146.9023   -11142.2385   -11142.2650  0.1888 -5.8819
siesta:    8   -11145.9221   -11141.8449   -11141.8772  0.1681 -5.8870
siesta:    9   -11144.7195   -11141.7620   -11141.7898  0.1333 -5.9300
siesta:   10   -11144.3415   -11141.7089   -11141.7392  0.1029 -5.9676
siesta:   11   -11144.2384   -11142.1453   -11142.1760  0.0814 -5.9787
siesta:   12   -11144.2161   -11142.2533   -11142.2826  0.0706 -5.9766
siesta:   13   -11144.1917   -11143.1010   -11143.1304  0.0394 -5.9559
siesta:   14   -11144.1939   -11143.5146   -11143.5455  0.0300 -5.9574
siesta:   15   -11144.1778   -11144.0335   -11144.0645  0.0107 -5.9476
siesta:   16   -11144.1715   -11144.1593   -11144.1901  0.0076 -5.9456
siesta:   17   -11144.1701   -11144.1950   -11144.2257  0.0051 -5.9459
siesta:   18   -11144.1688   -11144.2054   -11144.2362  0.0020 -5.9445
siesta:   19   -11144.1685   -11144.1505   -11144.1813  0.0026 -5.9454
siesta:   20   -11144.1678   -11144.2050   -11144.2359  0.0007 -5.9462
siesta:   21   -11144.1678   -11144.1891   -11144.2201  0.0008 -5.9463
siesta:   22   -11144.1678   -11144.1905   -11144.2215  0.0005 -5.9459
siesta:   23   -11144.1678   -11144.1759   -11144.2068  0.0007 -5.9463
siesta:   24   -11144.1677   -11144.1838   -11144.2148  0.0003 -5.9462
siesta:   25   -11144.1677   -11144.1735   -11144.2045  0.0002 -5.9464
siesta:   26   -11144.1677   -11144.1719   -11144.2029  0.0001 -5.9464

siesta: E_KS(eV) =           -11144.1714

siesta: E_KS - E_eggbox =    -11144.1714

siesta: Atomic forces (eV/Ang):
----------------------------------------
   Tot    0.194743   -0.161560    0.000000
----------------------------------------
   Max    4.138348
   Res    1.275564    sqrt( Sum f_i^2 / 3N )
----------------------------------------
   Max    4.138348    constrained

Stress-tensor-Voigt (kbar):     -118.25     -119.36       -0.25       -1.28        0.00        0.00
(Free)E + p*V (eV/cell)   -11050.5128
Target enthalpy (eV/cell)   -11144.2024

siesta: Stress tensor (static) (eV/Ang**3):
        -0.073806   -0.000802    0.000000
        -0.000802   -0.074496    0.000000
         0.000000    0.000000   -0.000157

siesta: Pressure (static):         79.28738074  kBar

siesta: Stress tensor (total) (eV/Ang**3):
        -0.073806   -0.000802    0.000000
        -0.000802   -0.074496    0.000000
         0.000000    0.000000   -0.000157

siesta: Pressure (total):         79.28738074  kBar

siesta: Temp_ion =       0.000 K

* Maximum dynamic memory allocated =   223 MB

siesta: Program's energy decomposition (eV):
siesta: Ebs     =     -3690.654972
siesta: Eions   =     17250.500670
siesta: Ena     =      3769.800133
siesta: Ekin    =      7406.472561
siesta: Enl     =      -691.325988
siesta: DEna    =      -341.563988
siesta: DUscf   =        36.549098
siesta: DUext   =         0.000000
siesta: Exc     =     -4073.602574
siesta: eta*DQ  =         0.000000
siesta: Emadel  =         0.000000
siesta: Emeta   =         0.000000
siesta: Emolmec =         0.000000
siesta: Ekinion =         0.000000
siesta: Eharris =    -11144.167743
siesta: Etot    =    -11144.171427
siesta: FreeEng =    -11144.202440

siesta: Final energy (eV):
siesta:  Band Struct. =   -3690.654972
siesta:       Kinetic =    7406.472561
siesta:       Hartree =   21696.444369
siesta:    Ext. field =       0.000000
siesta:   Exch.-corr. =   -4073.602574
siesta:  Ion-electron =  -50130.898431
siesta:       Ion-ion =   13957.412648
siesta:       Ekinion =       0.000000
siesta:         Total =  -11144.171427

siesta: Atomic forces (eV/Ang):
siesta:      1   -3.151928   -1.838053    0.000000
siesta:      2    1.203967   -0.821133    0.000000
siesta:      3    0.055937   -3.118127    0.000000
siesta:      4    0.081966    1.045766    0.000000
siesta:      5   -2.634368    1.663790    0.000000
siesta:      6   -1.054629   -0.641197    0.000000
siesta:      7    0.139220    0.089845    0.000000
siesta:      8   -0.243938    1.586003    0.000000
siesta:      9   -2.952370    1.607890    0.000000
siesta:     10   -0.670514    0.016938    0.000000
siesta:     11    0.592611   -0.138572    0.000000
siesta:     12   -0.421699   -0.245995    0.000000
siesta:     13   -0.339857    0.524818    0.000000
siesta:     14    3.210921   -2.187583    0.000000
siesta:     15    0.392345   -0.752538    0.000000
siesta:     16    0.063476   -0.072044    0.000000
siesta:     17   -0.917652    0.061037    0.000000
siesta:     18   -0.097071   -0.044789    0.000000
siesta:     19   -2.194932    1.960218    0.000000
siesta:     20    2.784807    1.739896    0.000000
siesta:     21   -0.131664    0.438255    0.000000
siesta:     22    0.523098   -0.917106    0.000000
siesta:     23    0.158020    3.334832    0.000000
siesta:     24   -0.419946   -3.295599    0.000000
siesta:     25   -0.264476   -0.029595    0.000000
siesta:     26    0.130242   -1.579510    0.000000
siesta:     27   -3.271362   -2.124509    0.000000
siesta:     28    2.578065   -2.317372    0.000000
siesta:     29   -0.212750   -0.960348    0.000000
siesta:     30    1.039472   -0.575457    0.000000
siesta:     31    0.267557   -3.636828    0.000000
siesta:     32    2.988244    1.416182    0.000000
siesta:     33   -0.069347    2.075907    0.000000
siesta:     34   -2.753022    1.864425    0.000000
siesta:     35    2.595112    1.986812    0.000000
siesta:     36    0.071628    1.529611    0.000000
siesta:     37   -2.816233    1.499222    0.000000
siesta:     38    1.034342   -0.395092    0.000000
siesta:     39    0.037930   -3.118313    0.000000
siesta:     40   -1.199449   -0.404610    0.000000
siesta:     41   -0.065975    0.156956    0.000000
siesta:     42    1.140984   -0.568221    0.000000
siesta:     43   -0.018820   -3.063433    0.000000
siesta:     44    2.827057    1.542326    0.000000
siesta:     45   -0.259350    0.869423    0.000000
siesta:     46   -2.762327    2.121552    0.000000
siesta:     47    0.300925   -0.355497    0.000000
siesta:     48   -0.446930    0.788524    0.000000
siesta:     49   -0.650868   -0.823433    0.000000
siesta:     50    0.618419    0.783665    0.000000
siesta:     51    2.990407    1.590049    0.000000
siesta:     52   -0.869494   -0.497780    0.000000
siesta:     53   -0.019736   -0.075028    0.000000
siesta:     54    2.980801    1.707801    0.000000
siesta:     55    0.944197   -0.490177    0.000000
siesta:     56   -0.063219   -3.150850    0.000000
siesta:     57    0.026041    1.101841    0.000000
siesta:     58   -2.942351    1.624739    0.000000
siesta:     59    0.590509   -0.495349    0.000000
siesta:     60   -0.176437    0.397633    0.000000
siesta:     61    2.681101    1.760757    0.000000
siesta:     62   -1.130726   -0.788319    0.000000
siesta:     63    0.379077    0.199479    0.000000
siesta:     64   -0.296117   -0.049460    0.000000
siesta:     65   -0.077430   -0.230945    0.000000
siesta:     66    0.104961   -3.940091    0.000000
siesta:     67    0.225872    0.063784    0.000000
siesta:     68   -0.009730    4.138348    0.000000
siesta:     69   -0.031509    0.070590    0.000000
siesta:     70    0.000542    0.115643    0.000000
siesta:     71    0.059981    0.069268    0.000000
siesta:     72    0.013132    0.037564    0.000000
siesta: ----------------------------------------
siesta:    Tot    0.194743   -0.161560    0.000000

siesta: Stress tensor (static) (eV/Ang**3):
siesta:    -0.073806   -0.000802    0.000000
siesta:    -0.000802   -0.074496    0.000000
siesta:     0.000000    0.000000   -0.000157

siesta: Cell volume =       1893.226895 Ang**3

siesta: Pressure (static):
siesta:                Solid            Molecule  Units
siesta:           0.00053897          0.00048351  Ry/Bohr**3
siesta:           0.04948676          0.04439417  eV/Ang**3
siesta:          79.28738074         71.12806811  kBar
(Free)E+ p_basis*V_orbitals  =      -11110.621241
(Free)Eharris+ p_basis*V_orbitals  =      -11110.617101

siesta: Electric dipole (a.u.)  =    0.000000    0.000000    0.000000
siesta: Electric dipole (Debye) =    0.000000    0.000000    0.000000

* Maximum dynamic memory allocated : Node    0 =   222 MB
* Maximum dynamic memory allocated : Node    1 =    80 MB
* Maximum dynamic memory allocated : Node    2 =    84 MB
* Maximum dynamic memory allocated : Node    3 =   211 MB
* Maximum dynamic memory allocated : Node    4 =   223 MB
* Maximum dynamic memory allocated : Node    5 =    81 MB
* Maximum dynamic memory allocated : Node    6 =    83 MB
* Maximum dynamic memory allocated : Node    7 =   205 MB

* Maximum memory occured during matrixMtoO                    

timer: CPU execution times:
timer:  Routine       Calls   Time/call    Tot.time        %
timer:  siesta            1  173101.979  173101.979   100.00
timer:  Setup             1       3.824       3.824     0.00
timer:  bands             1       0.017       0.017     0.00
timer:  writewave         1       0.041       0.041     0.00
timer:  KSV_init          1       0.008       0.008     0.00
timer:  IterMD            1  173090.251  173090.251    99.99
timer:  hsparse           1       0.392       0.392     0.00
timer:  overlap           1       6.406       6.406     0.00
timer:  IterSCF          26    6649.825  172895.461    99.88
timer:  kinefsm           2       3.345       6.691     0.00
timer:  nlefsm            2      20.292      40.585     0.02
timer:  DHSCF            27     104.522    2822.091     1.63
timer:  DHSCF1            1       0.992       0.992     0.00
timer:  DHSCF2            1      41.592      41.592     0.02
timer:  REORD           218       0.010       2.178     0.00
timer:  POISON           28       2.237      62.642     0.04
timer:  DHSCF3           27     101.502    2740.555     1.58
timer:  rhoofd           27      19.918     537.773     0.31
timer:  cellXC           27       3.507      94.701     0.05
timer:  vmat             27      52.140    1407.793     0.81
timer:  MolMec            2       0.000       0.000     0.00
timer:  diagon           26    6543.521  170131.540    98.28
timer:  c-eigval       9152       6.678   61119.567    35.31
timer:  c-buildHS      9152       0.122    1119.693     0.65
timer:  cdiag         18304       6.886  126035.064    72.81
timer:  cdiag1        18304       0.425    7770.544     4.49
timer:  cdiag2        18304       1.904   34851.070    20.13
timer:  cdiag3        18304       3.952   72336.221    41.79
timer:  cdiag4        18304       0.229    4194.464     2.42
timer:  c-eigvec       9152       7.289   66707.429    38.54
timer:  c-buildD       9152       4.614   42228.013    24.39
timer:  DHSCF4            1      37.496      37.496     0.02
timer:  dfscf             1      34.924      34.924     0.02
timer:  overfsm           1       0.428       0.428     0.00
timer:  optical           1       6.951       6.951     0.00
  

elaps: ELAPSED times:
elaps:  Routine       Calls   Time/call    Tot.time        %
elaps:  siesta            1   21662.671   21662.671   100.00
elaps:  Setup             1       0.494       0.494     0.00
elaps:  bands             1       0.002       0.002     0.00
elaps:  writewave         1       0.006       0.006     0.00
elaps:  KSV_init          1       0.001       0.001     0.00
elaps:  IterMD            1   21661.181   21661.181    99.99
elaps:  hsparse           1       0.049       0.049     0.00
elaps:  overlap           1       0.530       0.530     0.00
elaps:  IterSCF          26     832.203   21637.278    99.88
elaps:  kinefsm           2       0.278       0.556     0.00
elaps:  nlefsm            2       2.622       5.244     0.02
elaps:  DHSCF            27      13.208     356.604     1.65
elaps:  DHSCF1            1       0.127       0.127     0.00
elaps:  DHSCF2            1       5.200       5.200     0.02
elaps:  REORD           218       0.001       0.296     0.00
elaps:  POISON           28       0.280       7.834     0.04
elaps:  DHSCF3           27      12.698     342.849     1.58
elaps:  rhoofd           27       4.288     115.768     0.53
elaps:  cellXC           27       0.438      11.825     0.05
elaps:  vmat             27       6.523     176.114     0.81
elaps:  MolMec            2       0.000       0.000     0.00
elaps:  diagon           26     818.898   21291.357    98.29
elaps:  c-eigval       9152       0.836    7647.008    35.30
elaps:  c-buildHS      9152       0.017     152.576     0.70
elaps:  cdiag         18304       0.849   15543.785    71.75
elaps:  cdiag1        18304       0.053     964.670     4.45
elaps:  cdiag2        18304       0.238    4360.973    20.13
elaps:  cdiag3        18304       0.495    9062.678    41.84
elaps:  cdiag4        18304       0.029     530.181     2.45
elaps:  c-eigvec       9152       0.891    8155.860    37.65
elaps:  c-buildD       9152       0.599    5477.815    25.29
elaps:  DHSCF4            1       8.228       8.228     0.04
elaps:  dfscf             1       7.725       7.725     0.04
elaps:  overfsm           1       0.053       0.053     0.00
elaps:  optical           1       0.001       0.001     0.00
  
>> End of run:  28-NOV-2015  13:12:14
