Siesta Version:                                        siesta-3.2-pl-3
Architecture  : x86_64-unknown-linux-gnu--unknown
Compiler flags: mpiifort -g -O2 -fPIC -xSSE4.1 -fp-model source -shared-intel 
PARALLEL version

* Running on    8 nodes in parallel
>> Start of run:  25-NOV-2015  22:34:44

                           ***********************       
                           *  WELCOME TO SIESTA  *       
                           ***********************       

reinit: Reading from standard input
************************** Dump of input data file ****************************
#(1) General system descriptors
SystemName            GRP_doping    # Descriptive name of the system
SystemLabel           GRP_doping    # Short name for naming files
%include STRUCT.fdf
%include KPT.fdf
%include BASIS.fdf
#%include TS.fdf # for transiesta calculation
#(4) DFT, Grid, SCF
XC.functional         GGA           # LDA or GGA (default = LDA)
XC.authors            PBE           # CA (Ceperley-Aldr) = PZ
                                    #    (Perdew-Zunger) - LDA - Default
                                    # PW92 (Perdew-Wang-92) - LDA
                                    # PBE (Perdew-Burke-Ernzerhof) - GGA
MeshCutoff            200.000000    Ry      # Default: 50.0 Ry ~ 0.444 Bohr
                                    #         100.0 Ry ~ 0.314 Bohr
MaxSCFIterations      500           # Default: 50
DM.MixingWeight       0.05          # Default: 0.25
DM.NumberPulay        10            # Default: 0
DM.PulayOnFile        F             # SystemLabel.P1, SystemLabel.P2
DM.Tolerance          1.d-4         # Default: 1.d-4
DM.UseSaveDM          .true.        # because of the bug
SCFMustConverge       .true.
NeglNonOverlapInt     F             # Default: F
#(5) Eigenvalue problem: order-N or diagonalization
SolutionMethod        Diagon        # or Transiesta
ElectronicTemperature 300.0 K       # Default: 300.0 K
#(6) Molecular dynamics and relaxations
#MD.TypeOfRun          CG            # Type of dynamics:
#MD.VariableCell       F
#MD.NumCGsteps         0           # 0 for single-point / 100 for gopt
#MD.MaxCGDispl         0.2 Bohr      # Default: 0.2 Bohr
#MD.MaxForceTol        0.02 eV/Ang   # Default: 0.04 eV/Ang
#MD.MaxStressTol       1.0 GPa       # Default: 1.0 GPa
# Geometry Constraints
#%block GeometryConstraints
#	position from 1 to 44
#%endblock GeometryConstraints
************************** End of input data file *****************************

reinit: -----------------------------------------------------------------------
reinit: System Name: GRP_doping
reinit: -----------------------------------------------------------------------
reinit: System Label: GRP_doping                                                  
reinit: -----------------------------------------------------------------------

initatom: Reading input for the pseudopotentials and atomic orbitals ----------
 Species number:            1  Label: B Atomic number:           5
 Species number:            2  Label: C Atomic number:           6
Ground state valence configuration:   2s02  2p01
Reading pseudopotential information in formatted form from B.psf

Valence configuration for pseudopotential generation:
2s( 2.00) rc: 1.74
2p( 1.00) rc: 1.74
3d( 0.00) rc: 1.74
4f( 0.00) rc: 1.74
Ground state valence configuration:   2s02  2p02
Reading pseudopotential information in formatted form from C.psf

Valence configuration for pseudopotential generation:
2s( 2.00) rc: 1.54
2p( 2.00) rc: 1.54
3d( 0.00) rc: 1.54
4f( 0.00) rc: 1.54
For B, standard SIESTA heuristics set lmxkb to 3
 (one more than the basis l, including polarization orbitals).
Use PS.lmax or PS.KBprojectors blocks to override.
For C, standard SIESTA heuristics set lmxkb to 3
 (one more than the basis l, including polarization orbitals).
Use PS.lmax or PS.KBprojectors blocks to override.

<basis_specs>
===============================================================================
B                    Z=   5    Mass=  10.810        Charge= 0.17977+309
Lmxo=1 Lmxkb= 3    BasisType=split      Semic=F
L=0  Nsemic=0  Cnfigmx=2
          n=1  nzeta=2  polorb=0
            splnorm:   0.15000    
               vcte:    0.0000    
               rinn:    0.0000    
                rcs:    0.0000      0.0000    
            lambdas:    1.0000      1.0000    
L=1  Nsemic=0  Cnfigmx=2
          n=1  nzeta=2  polorb=1
            splnorm:   0.15000    
               vcte:    0.0000    
               rinn:    0.0000    
                rcs:    0.0000      0.0000    
            lambdas:    1.0000      1.0000    
-------------------------------------------------------------------------------
L=0  Nkbl=1  erefs: 0.17977+309
L=1  Nkbl=1  erefs: 0.17977+309
L=2  Nkbl=1  erefs: 0.17977+309
L=3  Nkbl=1  erefs: 0.17977+309
===============================================================================
</basis_specs>

atom: Called for B                     (Z =   5)

read_vps: Pseudopotential generation method:
read_vps: ATM3      Troullier-Martins                       
Total valence charge:    3.00000

read_vps: Pseudopotential includes a core correction:
read_vps: Pseudo-core for xc-correction

xc_check: Exchange-correlation functional:
xc_check: GGA Perdew, Burke & Ernzerhof 1996
V l=0 = -2*Zval/r beyond r=  1.7165
V l=1 = -2*Zval/r beyond r=  1.7165
V l=2 = -2*Zval/r beyond r=  1.7165
V l=3 = -2*Zval/r beyond r=  1.6951
All V_l potentials equal beyond r=  1.7165
This should be close to max(r_c) in ps generation
All pots = -2*Zval/r beyond r=  1.7165

VLOCAL1: 99.0% of the norm of Vloc inside     14.733 Ry
VLOCAL1: 99.9% of the norm of Vloc inside     33.577 Ry
atom: Maximum radius for 4*pi*r*r*local-pseudopot. charge    2.04484
atom: Maximum radius for r*vlocal+2*Zval:    1.75994
GHOST: No ghost state for L =  0
GHOST: No ghost state for L =  1
GHOST: No ghost state for L =  2
GHOST: No ghost state for L =  3

KBgen: Kleinman-Bylander projectors: 
   l= 0   rc=  1.897051   el= -0.693730   Ekb=  4.595746   kbcos=  0.286105
   l= 1   rc=  1.920920   el= -0.265236   Ekb= -2.350715   kbcos= -0.315747
   l= 2   rc=  2.044840   el=  0.002055   Ekb= -0.690767   kbcos= -0.013822
   l= 3   rc=  2.149707   el=  0.003188   Ekb= -0.315358   kbcos= -0.002055

KBgen: Total number of  Kleinman-Bylander projectors:   16
atom: -------------------------------------------------------------------------

atom: SANKEY-TYPE ORBITALS:
atom: Selected multiple-zeta basis: split     

SPLIT: Orbitals with angular momentum L= 0

SPLIT: Basis orbitals for state 2s

SPLIT: PAO cut-off radius determined from an
SPLIT: energy shift=  0.007350 Ry

   izeta = 1
                 lambda =    1.000000
                     rc =    5.422032
                 energy =   -0.686029
                kinetic =    0.576707
    potential(screened) =   -1.262736
       potential(ionic) =   -3.271094

   izeta = 2
                 rmatch =    4.222573
              splitnorm =    0.150000
                 energy =   -0.602132
                kinetic =    0.858975
    potential(screened) =   -1.461107
       potential(ionic) =   -3.582536

SPLIT: Orbitals with angular momentum L= 1

SPLIT: Basis orbitals for state 2p

SPLIT: PAO cut-off radius determined from an
SPLIT: energy shift=  0.007350 Ry

   izeta = 1
                 lambda =    1.000000
                     rc =    6.790259
                 energy =   -0.258578
                kinetic =    1.481412
    potential(screened) =   -1.739989
       potential(ionic) =   -3.657461

   izeta = 2
                 rmatch =    4.608740
              splitnorm =    0.150000
                 energy =   -0.173757
                kinetic =    2.186690
    potential(screened) =   -2.360447
       potential(ionic) =   -4.464260

POLgen: Perturbative polarization orbital with L=  2

POLgen: Polarization orbital for state 2p

   izeta = 1
                     rc =    6.790259
                 energy =    0.684082
                kinetic =    1.471481
    potential(screened) =   -0.787399
       potential(ionic) =   -2.406985
atom: Total number of Sankey-type orbitals: 13

atm_pop: Valence configuration (for local Pseudopot. screening):
 2s( 2.00)                                                            
 2p( 1.00)                                                            
Vna: chval, zval:    3.00000   3.00000

Vna:  Cut-off radius for the neutral-atom potential:   6.790259
comcore: Pseudo-core radius Rcore=  2.122997

atom: _________________________________________________________________________

<basis_specs>
===============================================================================
C                    Z=   6    Mass=  12.010        Charge= 0.17977+309
Lmxo=1 Lmxkb= 3    BasisType=split      Semic=F
L=0  Nsemic=0  Cnfigmx=2
          n=1  nzeta=2  polorb=0
            splnorm:   0.15000    
               vcte:    0.0000    
               rinn:    0.0000    
                rcs:    0.0000      0.0000    
            lambdas:    1.0000      1.0000    
L=1  Nsemic=0  Cnfigmx=2
          n=1  nzeta=2  polorb=1
            splnorm:   0.15000    
               vcte:    0.0000    
               rinn:    0.0000    
                rcs:    0.0000      0.0000    
            lambdas:    1.0000      1.0000    
-------------------------------------------------------------------------------
L=0  Nkbl=1  erefs: 0.17977+309
L=1  Nkbl=1  erefs: 0.17977+309
L=2  Nkbl=1  erefs: 0.17977+309
L=3  Nkbl=1  erefs: 0.17977+309
===============================================================================
</basis_specs>

atom: Called for C                     (Z =   6)

read_vps: Pseudopotential generation method:
read_vps: ATM3      Troullier-Martins                       
Total valence charge:    4.00000

read_vps: Pseudopotential includes a core correction:
read_vps: Pseudo-core for xc-correction

xc_check: Exchange-correlation functional:
xc_check: GGA Perdew, Burke & Ernzerhof 1996
V l=0 = -2*Zval/r beyond r=  1.5227
V l=1 = -2*Zval/r beyond r=  1.5227
V l=2 = -2*Zval/r beyond r=  1.5227
V l=3 = -2*Zval/r beyond r=  1.5038
All V_l potentials equal beyond r=  1.5227
This should be close to max(r_c) in ps generation
All pots = -2*Zval/r beyond r=  1.5227

VLOCAL1: 99.0% of the norm of Vloc inside     18.722 Ry
VLOCAL1: 99.9% of the norm of Vloc inside     42.668 Ry
atom: Maximum radius for 4*pi*r*r*local-pseudopot. charge    1.83678
atom: Maximum radius for r*vlocal+2*Zval:    1.58088
GHOST: No ghost state for L =  0
GHOST: No ghost state for L =  1
GHOST: No ghost state for L =  2
GHOST: No ghost state for L =  3

KBgen: Kleinman-Bylander projectors: 
   l= 0   rc=  1.704034   el= -1.009801   Ekb=  5.335044   kbcos=  0.316824
   l= 1   rc=  1.704034   el= -0.388707   Ekb= -3.785862   kbcos= -0.366464
   l= 2   rc=  1.791422   el=  0.001971   Ekb= -0.970471   kbcos= -0.009212
   l= 3   rc=  1.859892   el=  0.003065   Ekb= -0.399525   kbcos= -0.001223

KBgen: Total number of  Kleinman-Bylander projectors:   16
atom: -------------------------------------------------------------------------

atom: SANKEY-TYPE ORBITALS:
atom: Selected multiple-zeta basis: split     

SPLIT: Orbitals with angular momentum L= 0

SPLIT: Basis orbitals for state 2s

SPLIT: PAO cut-off radius determined from an
SPLIT: energy shift=  0.007350 Ry

   izeta = 1
                 lambda =    1.000000
                     rc =    4.632753
                 energy =   -1.002270
                kinetic =    0.855760
    potential(screened) =   -1.858031
       potential(ionic) =   -5.417575

   izeta = 2
                 rmatch =    3.431921
              splitnorm =    0.150000
                 energy =   -0.867111
                kinetic =    1.300804
    potential(screened) =   -2.167915
       potential(ionic) =   -5.962684

SPLIT: Orbitals with angular momentum L= 1

SPLIT: Basis orbitals for state 2p

SPLIT: PAO cut-off radius determined from an
SPLIT: energy shift=  0.007350 Ry

   izeta = 1
                 lambda =    1.000000
                     rc =    5.658549
                 energy =   -0.381140
                kinetic =    2.399701
    potential(screened) =   -2.780841
       potential(ionic) =   -6.206085

   izeta = 2
                 rmatch =    3.653288
              splitnorm =    0.150000
                 energy =   -0.249149
                kinetic =    3.542762
    potential(screened) =   -3.791911
       potential(ionic) =   -7.581078

POLgen: Perturbative polarization orbital with L=  2

POLgen: Polarization orbital for state 2p

   izeta = 1
                     rc =    5.658549
                 energy =    1.109913
                kinetic =    2.304789
    potential(screened) =   -1.194876
       potential(ionic) =   -4.013592
atom: Total number of Sankey-type orbitals: 13

atm_pop: Valence configuration (for local Pseudopot. screening):
 2s( 2.00)                                                            
 2p( 2.00)                                                            
Vna: chval, zval:    4.00000   4.00000

Vna:  Cut-off radius for the neutral-atom potential:   5.658549
comcore: Pseudo-core radius Rcore=  1.791422

atom: _________________________________________________________________________

prinput: Basis input ----------------------------------------------------------

PAO.BasisType split     

%block ChemicalSpeciesLabel
    1    5 B                       # Species index, atomic number, species label
    2    6 C                       # Species index, atomic number, species label
%endblock ChemicalSpeciesLabel

%block PAO.Basis                 # Define Basis set
B                     2                    # Species label, number of l-shells
 n=2   0   2                         # n, l, Nzeta 
   5.422      4.223   
   1.000      1.000   
 n=2   1   2 P   1                   # n, l, Nzeta, Polarization, NzetaPol
   6.790      4.609   
   1.000      1.000   
C                     2                    # Species label, number of l-shells
 n=2   0   2                         # n, l, Nzeta 
   4.633      3.432   
   1.000      1.000   
 n=2   1   2 P   1                   # n, l, Nzeta, Polarization, NzetaPol
   5.659      3.653   
   1.000      1.000   
%endblock PAO.Basis

prinput: ----------------------------------------------------------------------

coor:   Atomic-coordinates input format  =     Cartesian coordinates
coor:                                          (in Angstroms)

siesta: Atomic coordinates (Bohr) and species
siesta:      2.23549   1.32088   0.00000  1        1
siesta:      4.56357   2.66443   0.00000  1        2
siesta:     32.50244  21.48363   0.00000  2        3
siesta:     34.83052  22.82718   0.00000  2        4
siesta:     34.83048  17.45108   0.00000  2        5
siesta:     37.15856  18.79463   0.00000  2        6
siesta:     32.50239  13.41853   0.00000  2        7
siesta:     34.83046  14.76208   0.00000  2        8
siesta:     30.17428   9.38598   0.00000  2        9
siesta:     32.50237  10.72953   0.00000  2       10
siesta:     27.84618   5.35343   0.00000  2       11
siesta:     30.17426   6.69698   0.00000  2       12
siesta:     27.84630  21.48363   0.00000  2       13
siesta:     30.17438  22.82718   0.00000  2       14
siesta:      6.89163   1.32088   0.00000  2       15
siesta:      9.21971   2.66443   0.00000  2       16
siesta:     11.54777   1.32088   0.00000  2       17
siesta:     13.87585   2.66443   0.00000  2       18
siesta:     16.20391   1.32088   0.00000  2       19
siesta:     18.53199   2.66443   0.00000  2       20
siesta:     20.86194   1.32088   0.00000  2       21
siesta:     23.19002   2.66443   0.00000  2       22
siesta:     25.51808   1.32088   0.00000  2       23
siesta:     27.84616   2.66443   0.00000  2       24
siesta:      4.56359   5.35343   0.00000  2       25
siesta:      6.89167   6.69698   0.00000  2       26
siesta:      9.21973   5.35343   0.00000  2       27
siesta:     11.54781   6.69698   0.00000  2       28
siesta:     13.87587   5.35343   0.00000  2       29
siesta:     16.20395   6.69698   0.00000  2       30
siesta:     18.53390   5.35343   0.00000  2       31
siesta:     20.86198   6.69698   0.00000  2       32
siesta:     23.19004   5.35343   0.00000  2       33
siesta:     25.51812   6.69698   0.00000  2       34
siesta:      6.89169   9.38598   0.00000  2       35
siesta:      9.21977  10.72953   0.00000  2       36
siesta:     11.54783   9.38598   0.00000  2       37
siesta:     13.87591  10.72953   0.00000  2       38
siesta:     16.20397   9.38598   0.00000  2       39
siesta:     18.53205  10.72953   0.00000  2       40
siesta:     20.86200   9.38598   0.00000  2       41
siesta:     23.19008  10.72953   0.00000  2       42
siesta:      9.21979  13.41853   0.00000  2       43
siesta:     11.54787  14.76208   0.00000  2       44
siesta:     13.87593  13.41853   0.00000  2       45
siesta:     16.20401  14.76208   0.00000  2       46
siesta:     18.53396  13.41853   0.00000  2       47
siesta:     20.86204  14.76208   0.00000  2       48
siesta:     11.54789  17.45108   0.00000  2       49
siesta:     13.87597  18.79463   0.00000  2       50
siesta:     16.20403  17.45108   0.00000  2       51
siesta:     18.53211  18.79463   0.00000  2       52
siesta:     13.87599  21.48363   0.00000  2       53
siesta:     16.20407  22.82718   0.00000  2       54
siesta:     18.53402  21.48363   0.00000  2       55
siesta:     20.86210  22.82718   0.00000  2       56
siesta:     25.51814   9.38598   0.00000  2       57
siesta:     27.84622  10.72953   0.00000  2       58
siesta:     23.19010  13.41853   0.00000  2       59
siesta:     25.51818  14.76208   0.00000  2       60
siesta:     20.86206  17.45108   0.00000  2       61
siesta:     23.19014  18.79463   0.00000  2       62
siesta:     27.84624  13.41853   0.00000  2       63
siesta:     30.17432  14.76208   0.00000  2       64
siesta:     25.51820  17.45108   0.00000  2       65
siesta:     27.84628  18.79463   0.00000  2       66
siesta:     23.19016  21.48363   0.00000  2       67
siesta:     25.51824  22.82718   0.00000  2       68
siesta:     30.17434  17.45108   0.00000  2       69
siesta:     32.50243  18.79463   0.00000  2       70
siesta:     37.16048  21.48363   0.00000  2       71
siesta:     39.48855  22.82718   0.00000  2       72

siesta: System type = slab      

initatomlists: Number of atoms, orbitals, and projectors:     72   936  1152

siesta: ******************** Simulation parameters ****************************
siesta:
siesta: The following are some of the parameters of the simulation.
siesta: A complete list of the parameters used, including default values,
siesta: can be found in file out.fdf
siesta:
redata: Non-Collinear-spin run           =     F
redata: SpinPolarized (Up/Down) run      =     F
redata: Number of spin components        =     1
redata: Long output                      =     F
redata: Number of Atomic Species         =        2
redata: Charge density info will appear in .RHO file
redata: Write Mulliken Pop.              =     NO
redata: Mesh Cutoff                      =   200.0000  Ry
redata: Net charge of the system         =     0.0000 |e|
redata: Max. number of SCF Iter          =      500
redata: SCF convergence failure will abort job
redata: Performing Pulay mixing using    =    10 iterations
redata: Mix DM in first SCF step ?       =     F
redata: Write Pulay info on disk?        =     F
redata: Discard 1st Pulay DM after  kick =     F
redata: New DM Mixing Weight             =     0.0500
redata: New DM Occupancy tolerance       = 0.000000000001
redata: No kicks to SCF
redata: DM Mixing Weight for Kicks       =     0.5000
redata: DM Tolerance for SCF             =     0.000100
redata: Require Energy convergence for SCF =     F
redata: DM Energy tolerance for SCF      =     0.000100 eV
redata: Require Harris convergence for SCF =     F
redata: DM Harris energy tolerance for SCF =     0.000100 eV
redata: Using Saved Data (generic)   =     F
redata: Use continuation files for DM    =     T
redata: Neglect nonoverlap interactions  =     F
redata: Method of Calculation            =     Diagonalization
redata: Divide and Conquer               =     T
redata: Electronic Temperature           =     0.0019  Ry
redata: Fix the spin of the system       =     F
redata: Dynamics option                  =     Verlet MD run
redata: Initial MD time step             =        1
redata:   Final MD time step             =        1
redata: Length of MD time step           =     1.0000  fs
redata: Initial Temperature of MD run    =     0.0000  K
redata: Perform a MD quench              =     F
redata: ***********************************************************************
Total number of electrons:   286.000000
Total ionic charge:   286.000000

* ProcessorY, Blocksize:    2  24

k-point displ. along   1 input, could be:     0.00    0.50
k-point displ. along   2 input, could be:     0.00    0.50
 Kpoints in:          364 . Kpoints trimmed:          352

siesta: k-grid: Number of k-points =   352
siesta: k-grid: Cutoff (effective) =     5.000 Ang
siesta: k-grid: Supercell and displacements
siesta: k-grid:   26   0   0      0.000
siesta: k-grid:    0  26   0      0.000
siesta: k-grid:    0   0   1      0.000
Naive supercell factors:     2    2    2

superc: Internal auxiliary supercell:     2 x     2 x     2  =       8
superc: Number of atoms, orbitals, and projectors:    576   7488   9216

* Maximum dynamic memory allocated =     6 MB

siesta:                 ==============================
                            Begin MD step =      1
                        ==============================

superc: Internal auxiliary supercell:     2 x     2 x     2  =       8
superc: Number of atoms, orbitals, and projectors:    576   7488   9216

outcell: Unit cell vectors (Ang):
       14.785000    0.000000    0.000000
        7.392500   12.804185    0.000000
        0.000000    0.000000   10.000000

outcell: Cell vector modules (Ang)   :   14.785000   14.785000   10.000000
outcell: Cell angles (23,13,12) (deg):     90.0000     90.0000     60.0000
outcell: Cell volume (Ang**3)        :   1893.0988
New_DM. Step:     1
Initializing Density Matrix...

iodm: Reading Density Matrix from files

InitMesh: MESH =   120 x   120 x    90 =     1296000
InitMesh: Mesh cutoff (required, used) =   200.000   223.865 Ry

* Maximum dynamic memory allocated =   200 MB

stepf: Fermi-Dirac step function

siesta: Program's energy decomposition (eV):
siesta: Ebs     =     -3882.406128
siesta: Eions   =     18146.897649
siesta: Ena     =      3930.269918
siesta: Ekin    =      7736.558879
siesta: Enl     =      -769.682545
siesta: DEna    =      -297.632886
siesta: DUscf   =        27.714925
siesta: DUext   =         0.000000
siesta: Exc     =     -4046.406805
siesta: eta*DQ  =         0.000000
siesta: Emadel  =         0.000000
siesta: Emeta   =         0.000000
siesta: Emolmec =         0.000000
siesta: Ekinion =         0.000000
siesta: Eharris =    -11566.075437
siesta: Etot    =    -11566.076162
siesta: FreeEng =    -11566.076162

siesta: iscf   Eharris(eV)      E_KS(eV)   FreeEng(eV)   dDmax  Ef(eV)
siesta:    1   -11566.0754   -11566.0762   -11566.0762  0.0009 -5.1337
timer: Routine,Calls,Time,% = IterSCF        1    5193.853  99.79
elaps: Routine,Calls,Wall,% = IterSCF        1     650.500  99.79
siesta:    2   -11566.0760   -11566.0753   -11566.0945  0.0018 -5.1226
siesta:    3   -11566.0754   -11566.0759   -11566.0952  0.0002 -5.1308
siesta:    4   -11566.0754   -11566.0755   -11566.0947  0.0001 -5.1318
siesta:    5   -11566.0754   -11566.0754   -11566.0947  0.0000 -5.1319

siesta: E_KS(eV) =           -11566.0754

siesta: E_KS - E_eggbox =    -11566.0754

siesta: Atomic forces (eV/Ang):
----------------------------------------
   Tot    0.195531   -0.292177    0.000000
----------------------------------------
   Max    3.556898
   Res    0.656179    sqrt( Sum f_i^2 / 3N )
----------------------------------------
   Max    3.556898    constrained

Stress-tensor-Voigt (kbar):      -55.31      -53.66       -0.05       -1.33        0.00        0.00
(Free)E + p*V (eV/cell)   -11523.1555
Target enthalpy (eV/cell)   -11566.0946

siesta: Stress tensor (static) (eV/Ang**3):
        -0.034521   -0.000833    0.000000
        -0.000833   -0.033494    0.000000
         0.000000    0.000000   -0.000031

siesta: Pressure (static):         36.34084502  kBar

siesta: Stress tensor (total) (eV/Ang**3):
        -0.034521   -0.000833    0.000000
        -0.000833   -0.033494    0.000000
         0.000000    0.000000   -0.000031

siesta: Pressure (total):         36.34084502  kBar

siesta: Temp_ion =       0.000 K

* Maximum dynamic memory allocated =   214 MB

siesta: Program's energy decomposition (eV):
siesta: Ebs     =     -3882.457176
siesta: Eions   =     18146.897649
siesta: Ena     =      3930.269918
siesta: Ekin    =      7736.535247
siesta: Enl     =      -769.674390
siesta: DEna    =      -297.622632
siesta: DUscf   =        27.715639
siesta: DUext   =         0.000000
siesta: Exc     =     -4046.401532
siesta: eta*DQ  =         0.000000
siesta: Emadel  =         0.000000
siesta: Emeta   =         0.000000
siesta: Emolmec =         0.000000
siesta: Ekinion =         0.000000
siesta: Eharris =    -11566.075400
siesta: Etot    =    -11566.075399
siesta: FreeEng =    -11566.094646

siesta: Final energy (eV):
siesta:  Band Struct. =   -3882.457176
siesta:       Kinetic =    7736.535247
siesta:       Hartree =   22799.799075
siesta:    Ext. field =       0.000000
siesta:   Exch.-corr. =   -4046.401532
siesta:  Ion-electron =  -52716.627687
siesta:       Ion-ion =   14660.619498
siesta:       Ekinion =       0.000000
siesta:         Total =  -11566.075399

siesta: Atomic forces (eV/Ang):
siesta:      1   -3.556898   -2.077416    0.000000
siesta:      2    3.551218    2.061102    0.000000
siesta:      3    0.054964    0.066891    0.000000
siesta:      4   -0.121193    0.088896    0.000000
siesta:      5    0.091973   -0.006354    0.000000
siesta:      6    0.006876   -0.172569    0.000000
siesta:      7   -0.030331    0.039136    0.000000
siesta:      8    0.016826    0.013761    0.000000
siesta:      9   -0.160995   -0.202913    0.000000
siesta:     10    0.101739   -0.056085    0.000000
siesta:     11   -1.006009   -0.484307    0.000000
siesta:     12    0.928723    0.646119    0.000000
siesta:     13    0.032080   -0.064158    0.000000
siesta:     14    0.011728    0.017677    0.000000
siesta:     15    3.275243   -1.414323    0.000000
siesta:     16    0.040348   -0.750224    0.000000
siesta:     17    0.164422    0.104498    0.000000
siesta:     18    0.054957   -0.011987    0.000000
siesta:     19    0.060731    0.008252    0.000000
siesta:     20   -0.009141   -0.045278    0.000000
siesta:     21   -0.085709   -0.017741    0.000000
siesta:     22   -0.157011   -0.140029    0.000000
siesta:     23   -0.027576    0.714245    0.000000
siesta:     24   -3.254977    1.374427    0.000000
siesta:     25    0.430058    3.509963    0.000000
siesta:     26   -0.630709    0.413477    0.000000
siesta:     27    0.378784    0.204979    0.000000
siesta:     28   -0.367366   -0.209083    0.000000
siesta:     29    0.168237   -0.080992    0.000000
siesta:     30   -0.016326   -0.079396    0.000000
siesta:     31   -0.050075    0.004586    0.000000
siesta:     32   -0.028289    0.060004    0.000000
siesta:     33    0.002105   -0.110255    0.000000
siesta:     34    0.249201    0.051283    0.000000
siesta:     35    0.186726    0.058572    0.000000
siesta:     36    0.016900    0.056080    0.000000
siesta:     37    0.023359    0.160601    0.000000
siesta:     38   -0.085801   -0.000934    0.000000
siesta:     39    0.076280    0.029057    0.000000
siesta:     40   -0.016278   -0.038374    0.000000
siesta:     41   -0.071993   -0.097160    0.000000
siesta:     42    0.169125   -0.006299    0.000000
siesta:     43    0.050124    0.017644    0.000000
siesta:     44   -0.059392   -0.018693    0.000000
siesta:     45    0.008443   -0.027748    0.000000
siesta:     46    0.067618   -0.056708    0.000000
siesta:     47   -0.140505    0.002705    0.000000
siesta:     48    0.077277    0.156586    0.000000
siesta:     49   -0.026135   -0.060401    0.000000
siesta:     50   -0.197196   -0.061539    0.000000
siesta:     51   -0.080756    0.036850    0.000000
siesta:     52    0.207909    0.186329    0.000000
siesta:     53    0.651659   -0.423416    0.000000
siesta:     54   -0.410169   -3.486764    0.000000
siesta:     55   -0.949350   -0.648630    0.000000
siesta:     56    1.012503    0.490440    0.000000
siesta:     57   -0.165085    0.113470    0.000000
siesta:     58   -0.023542    0.212097    0.000000
siesta:     59    0.057917    0.019200    0.000000
siesta:     60   -0.053160   -0.028266    0.000000
siesta:     61   -0.001721   -0.212401    0.000000
siesta:     62    0.164451   -0.122844    0.000000
siesta:     63   -0.073368   -0.165426    0.000000
siesta:     64    0.105718   -0.004088    0.000000
siesta:     65   -0.167767   -0.002487    0.000000
siesta:     66    0.046456    0.095698    0.000000
siesta:     67   -0.245059   -0.055747    0.000000
siesta:     68   -0.006659    0.126671    0.000000
siesta:     69    0.062362    0.022931    0.000000
siesta:     70   -0.068706   -0.038034    0.000000
siesta:     71    0.332442    0.210852    0.000000
siesta:     72   -0.396699   -0.188188    0.000000
siesta: ----------------------------------------
siesta:    Tot    0.195531   -0.292177    0.000000

siesta: Stress tensor (static) (eV/Ang**3):
siesta:    -0.034521   -0.000833    0.000000
siesta:    -0.000833   -0.033494    0.000000
siesta:     0.000000    0.000000   -0.000031

siesta: Cell volume =       1893.098801 Ang**3

siesta: Pressure (static):
siesta:                Solid            Molecule  Units
siesta:           0.00024704          0.00037653  Ry/Bohr**3
siesta:           0.02268193          0.03457216  eV/Ang**3
siesta:          36.34084502         55.39129811  kBar
(Free)E+ p_basis*V_orbitals  =      -11534.725120
(Free)Eharris+ p_basis*V_orbitals  =      -11534.725093

siesta: Electric dipole (a.u.)  =    0.000000    0.000000    0.000000
siesta: Electric dipole (Debye) =    0.000000    0.000000    0.000000

* Maximum dynamic memory allocated : Node    0 =   214 MB
* Maximum dynamic memory allocated : Node    1 =    78 MB
* Maximum dynamic memory allocated : Node    2 =    80 MB
* Maximum dynamic memory allocated : Node    3 =   202 MB
* Maximum dynamic memory allocated : Node    4 =   212 MB
* Maximum dynamic memory allocated : Node    5 =    76 MB
* Maximum dynamic memory allocated : Node    6 =    79 MB
* Maximum dynamic memory allocated : Node    7 =   195 MB

* Maximum memory occured during matrixMtoO                    

timer: CPU execution times:
timer:  Routine       Calls   Time/call    Tot.time        %
timer:  siesta            1   25729.857   25729.857   100.00
timer:  Setup             1       2.714       2.714     0.01
timer:  bands             1       0.008       0.008     0.00
timer:  writewave         1       0.017       0.017     0.00
timer:  KSV_init          1       0.000       0.000     0.00
timer:  IterMD            1   25719.856   25719.856    99.96
timer:  hsparse           1       0.512       0.512     0.00
timer:  overlap           1       4.353       4.353     0.02
timer:  IterSCF           5    5111.333   25556.665    99.33
timer:  kinefsm           2       2.281       4.562     0.02
timer:  nlefsm            2      18.515      37.031     0.14
timer:  DHSCF             6      92.354     554.127     2.15
timer:  DHSCF1            1       0.991       0.991     0.00
timer:  DHSCF2            1      38.269      38.269     0.15
timer:  REORD            50       0.005       0.243     0.00
timer:  POISON            7       0.938       6.569     0.03
timer:  DHSCF3            6      80.339     482.034     1.87
timer:  rhoofd            6      16.784     100.706     0.39
timer:  cellXC            6       3.394      20.363     0.08
timer:  vmat              6      39.272     235.631     0.92
timer:  MolMec            2       0.001       0.002     0.00
timer:  diagon            5    5016.188   25080.942    97.48
timer:  c-eigval       1760       6.044   10637.199    41.34
timer:  c-buildHS      1760       0.052      92.277     0.36
timer:  cdiag          3520       6.162   21689.723    84.30
timer:  cdiag1         3520       0.386    1359.677     5.28
timer:  cdiag2         3520       1.767    6220.781    24.18
timer:  cdiag3         3520       3.739   13159.882    51.15
timer:  cdiag4         3520       0.149     525.918     2.04
timer:  c-eigvec       1760       6.377   11224.095    43.62
timer:  c-buildD       1760       1.824    3210.828    12.48
timer:  DHSCF4            1      32.707      32.707     0.13
timer:  dfscf             1      30.115      30.115     0.12
timer:  overfsm           1       0.377       0.377     0.00
timer:  optical           1       6.375       6.375     0.02
  

elaps: ELAPSED times:
elaps:  Routine       Calls   Time/call    Tot.time        %
elaps:  siesta            1    3222.406    3222.406   100.00
elaps:  Setup             1       0.339       0.339     0.01
elaps:  bands             1       0.001       0.001     0.00
elaps:  writewave         1       0.002       0.002     0.00
elaps:  KSV_init          1       0.000       0.000     0.00
elaps:  IterMD            1    3221.154    3221.154    99.96
elaps:  hsparse           1       0.065       0.065     0.00
elaps:  overlap           1       0.901       0.901     0.03
elaps:  IterSCF           5     640.143    3200.717    99.33
elaps:  kinefsm           2       0.465       0.930     0.03
elaps:  nlefsm            2       2.218       4.435     0.14
elaps:  DHSCF             6      12.131      72.786     2.26
elaps:  DHSCF1            1       0.126       0.126     0.00
elaps:  DHSCF2            1       4.792       4.792     0.15
elaps:  REORD            50       0.001       0.036     0.00
elaps:  POISON            7       0.119       0.832     0.03
elaps:  DHSCF3            6      10.062      60.373     1.87
elaps:  rhoofd            6       3.692      22.150     0.69
elaps:  cellXC            6       0.425       2.549     0.08
elaps:  vmat              6       4.919      29.511     0.92
elaps:  MolMec            2       0.000       0.000     0.00
elaps:  diagon            5     628.235    3141.175    97.48
elaps:  c-eigval       1760       0.757    1332.172    41.34
elaps:  c-buildHS      1760       0.007      12.692     0.39
elaps:  cdiag          3520       0.768    2701.728    83.84
elaps:  cdiag1         3520       0.048     170.379     5.29
elaps:  cdiag2         3520       0.221     779.276    24.18
elaps:  cdiag3         3520       0.469    1650.259    51.21
elaps:  cdiag4         3520       0.019      65.860     2.04
elaps:  c-eigvec       1760       0.792    1393.117    43.23
elaps:  c-buildD       1760       0.235     414.281    12.86
elaps:  DHSCF4            1       7.479       7.479     0.23
elaps:  dfscf             1       6.980       6.980     0.22
elaps:  overfsm           1       0.051       0.051     0.00
elaps:  optical           1       0.000       0.000     0.00
  
>> End of run:  25-NOV-2015  23:28:27
