Siesta Version:                                        siesta-3.2-pl-3
Architecture  : x86_64-unknown-linux-gnu--unknown
Compiler flags: mpiifort -g -O2 -fPIC -xSSE4.1 -fp-model source -shared-intel 
PARALLEL version

* Running on    8 nodes in parallel
>> Start of run:  10-DEC-2015  22:40:00

                           ***********************       
                           *  WELCOME TO SIESTA  *       
                           ***********************       

reinit: Reading from standard input
************************** Dump of input data file ****************************
#(1) General system descriptors
SystemName            GRP_doping    # Descriptive name of the system
SystemLabel           GRP_doping    # Short name for naming files
%include STRUCT.fdf
%include KPT.fdf
%include BASIS.fdf
#%include TS.fdf # for transiesta calculation
#(4) DFT, Grid, SCF
XC.functional         GGA           # LDA or GGA (default = LDA)
XC.authors            PBE           # CA (Ceperley-Aldr) = PZ
                                    #    (Perdew-Zunger) - LDA - Default
                                    # PW92 (Perdew-Wang-92) - LDA
                                    # PBE (Perdew-Burke-Ernzerhof) - GGA
MeshCutoff            200.000000    Ry      # Default: 50.0 Ry ~ 0.444 Bohr
                                    #         100.0 Ry ~ 0.314 Bohr
MaxSCFIterations      500           # Default: 50
DM.MixingWeight       0.05          # Default: 0.25
DM.NumberPulay        10            # Default: 0
DM.PulayOnFile        F             # SystemLabel.P1, SystemLabel.P2
DM.Tolerance          1.d-4         # Default: 1.d-4
DM.UseSaveDM          .true.        # because of the bug
SCFMustConverge       .true.
NeglNonOverlapInt     F             # Default: F
#(5) Eigenvalue problem: order-N or diagonalization
SolutionMethod        Diagon        # or Transiesta
ElectronicTemperature 300.0 K       # Default: 300.0 K
#(6) Molecular dynamics and relaxations
#MD.TypeOfRun          CG            # Type of dynamics:
#MD.VariableCell       F
#MD.NumCGsteps         0           # 0 for single-point / 100 for gopt
#MD.MaxCGDispl         0.2 Bohr      # Default: 0.2 Bohr
#MD.MaxForceTol        0.02 eV/Ang   # Default: 0.04 eV/Ang
#MD.MaxStressTol       1.0 GPa       # Default: 1.0 GPa
# Geometry Constraints
#%block GeometryConstraints
#	position from 1 to 44
#%endblock GeometryConstraints
BandLinesScale   pi/a
%block BandLines
 1   0.00000000  0.00000000  0.00000000
50   0.00000000  0.07809418  0.00000000
50   0.04509075  0.07809242  0.00000000
20   0.00000000  0.00000000  0.00000000
%endblock BandLines
************************** End of input data file *****************************

reinit: -----------------------------------------------------------------------
reinit: System Name: GRP_doping
reinit: -----------------------------------------------------------------------
reinit: System Label: GRP_doping                                                  
reinit: -----------------------------------------------------------------------

initatom: Reading input for the pseudopotentials and atomic orbitals ----------
 Species number:            1  Label: C Atomic number:           6
 Species number:            2  Label: N Atomic number:           7
Ground state valence configuration:   2s02  2p02
Reading pseudopotential information in formatted form from C.psf

Valence configuration for pseudopotential generation:
2s( 2.00) rc: 1.54
2p( 2.00) rc: 1.54
3d( 0.00) rc: 1.54
4f( 0.00) rc: 1.54
Ground state valence configuration:   2s02  2p03
Reading pseudopotential information in formatted form from N.psf

Valence configuration for pseudopotential generation:
2s( 2.00) rc: 1.48
2p( 3.00) rc: 1.48
3d( 0.00) rc: 1.48
4f( 0.00) rc: 1.48
For C, standard SIESTA heuristics set lmxkb to 3
 (one more than the basis l, including polarization orbitals).
Use PS.lmax or PS.KBprojectors blocks to override.
For N, standard SIESTA heuristics set lmxkb to 3
 (one more than the basis l, including polarization orbitals).
Use PS.lmax or PS.KBprojectors blocks to override.

<basis_specs>
===============================================================================
C                    Z=   6    Mass=  12.010        Charge= 0.17977+309
Lmxo=1 Lmxkb= 3    BasisType=split      Semic=F
L=0  Nsemic=0  Cnfigmx=2
          n=1  nzeta=2  polorb=0
            splnorm:   0.15000    
               vcte:    0.0000    
               rinn:    0.0000    
                rcs:    0.0000      0.0000    
            lambdas:    1.0000      1.0000    
L=1  Nsemic=0  Cnfigmx=2
          n=1  nzeta=2  polorb=1
            splnorm:   0.15000    
               vcte:    0.0000    
               rinn:    0.0000    
                rcs:    0.0000      0.0000    
            lambdas:    1.0000      1.0000    
-------------------------------------------------------------------------------
L=0  Nkbl=1  erefs: 0.17977+309
L=1  Nkbl=1  erefs: 0.17977+309
L=2  Nkbl=1  erefs: 0.17977+309
L=3  Nkbl=1  erefs: 0.17977+309
===============================================================================
</basis_specs>

atom: Called for C                     (Z =   6)

read_vps: Pseudopotential generation method:
read_vps: ATM3      Troullier-Martins                       
Total valence charge:    4.00000

read_vps: Pseudopotential includes a core correction:
read_vps: Pseudo-core for xc-correction

xc_check: Exchange-correlation functional:
xc_check: GGA Perdew, Burke & Ernzerhof 1996
V l=0 = -2*Zval/r beyond r=  1.5227
V l=1 = -2*Zval/r beyond r=  1.5227
V l=2 = -2*Zval/r beyond r=  1.5227
V l=3 = -2*Zval/r beyond r=  1.5038
All V_l potentials equal beyond r=  1.5227
This should be close to max(r_c) in ps generation
All pots = -2*Zval/r beyond r=  1.5227

VLOCAL1: 99.0% of the norm of Vloc inside     18.722 Ry
VLOCAL1: 99.9% of the norm of Vloc inside     42.668 Ry
atom: Maximum radius for 4*pi*r*r*local-pseudopot. charge    1.83678
atom: Maximum radius for r*vlocal+2*Zval:    1.58088
GHOST: No ghost state for L =  0
GHOST: No ghost state for L =  1
GHOST: No ghost state for L =  2
GHOST: No ghost state for L =  3

KBgen: Kleinman-Bylander projectors: 
   l= 0   rc=  1.704034   el= -1.009801   Ekb=  5.335044   kbcos=  0.316824
   l= 1   rc=  1.704034   el= -0.388707   Ekb= -3.785862   kbcos= -0.366464
   l= 2   rc=  1.791422   el=  0.001971   Ekb= -0.970471   kbcos= -0.009212
   l= 3   rc=  1.859892   el=  0.003065   Ekb= -0.399525   kbcos= -0.001223

KBgen: Total number of  Kleinman-Bylander projectors:   16
atom: -------------------------------------------------------------------------

atom: SANKEY-TYPE ORBITALS:
atom: Selected multiple-zeta basis: split     

SPLIT: Orbitals with angular momentum L= 0

SPLIT: Basis orbitals for state 2s

SPLIT: PAO cut-off radius determined from an
SPLIT: energy shift=  0.007350 Ry

   izeta = 1
                 lambda =    1.000000
                     rc =    4.632753
                 energy =   -1.002270
                kinetic =    0.855760
    potential(screened) =   -1.858031
       potential(ionic) =   -5.417575

   izeta = 2
                 rmatch =    3.431921
              splitnorm =    0.150000
                 energy =   -0.867111
                kinetic =    1.300804
    potential(screened) =   -2.167915
       potential(ionic) =   -5.962684

SPLIT: Orbitals with angular momentum L= 1

SPLIT: Basis orbitals for state 2p

SPLIT: PAO cut-off radius determined from an
SPLIT: energy shift=  0.007350 Ry

   izeta = 1
                 lambda =    1.000000
                     rc =    5.658549
                 energy =   -0.381140
                kinetic =    2.399701
    potential(screened) =   -2.780841
       potential(ionic) =   -6.206085

   izeta = 2
                 rmatch =    3.653288
              splitnorm =    0.150000
                 energy =   -0.249149
                kinetic =    3.542762
    potential(screened) =   -3.791911
       potential(ionic) =   -7.581078

POLgen: Perturbative polarization orbital with L=  2

POLgen: Polarization orbital for state 2p

   izeta = 1
                     rc =    5.658549
                 energy =    1.109913
                kinetic =    2.304789
    potential(screened) =   -1.194876
       potential(ionic) =   -4.013592
atom: Total number of Sankey-type orbitals: 13

atm_pop: Valence configuration (for local Pseudopot. screening):
 2s( 2.00)                                                            
 2p( 2.00)                                                            
Vna: chval, zval:    4.00000   4.00000

Vna:  Cut-off radius for the neutral-atom potential:   5.658549
comcore: Pseudo-core radius Rcore=  1.791422

atom: _________________________________________________________________________

<basis_specs>
===============================================================================
N                    Z=   7    Mass=  14.010        Charge= 0.17977+309
Lmxo=1 Lmxkb= 3    BasisType=split      Semic=F
L=0  Nsemic=0  Cnfigmx=2
          n=1  nzeta=2  polorb=0
            splnorm:   0.15000    
               vcte:    0.0000    
               rinn:    0.0000    
                rcs:    0.0000      0.0000    
            lambdas:    1.0000      1.0000    
L=1  Nsemic=0  Cnfigmx=2
          n=1  nzeta=2  polorb=1
            splnorm:   0.15000    
               vcte:    0.0000    
               rinn:    0.0000    
                rcs:    0.0000      0.0000    
            lambdas:    1.0000      1.0000    
-------------------------------------------------------------------------------
L=0  Nkbl=1  erefs: 0.17977+309
L=1  Nkbl=1  erefs: 0.17977+309
L=2  Nkbl=1  erefs: 0.17977+309
L=3  Nkbl=1  erefs: 0.17977+309
===============================================================================
</basis_specs>

atom: Called for N                     (Z =   7)

read_vps: Pseudopotential generation method:
read_vps: ATM3      Troullier-Martins                       
Total valence charge:    5.00000

read_vps: Pseudopotential includes a core correction:
read_vps: Pseudo-core for xc-correction

xc_check: Exchange-correlation functional:
xc_check: GGA Perdew, Burke & Ernzerhof 1996
V l=0 = -2*Zval/r beyond r=  1.4606
V l=1 = -2*Zval/r beyond r=  1.4606
V l=2 = -2*Zval/r beyond r=  1.4606
V l=3 = -2*Zval/r beyond r=  1.4606
All V_l potentials equal beyond r=  1.4606
This should be close to max(r_c) in ps generation
All pots = -2*Zval/r beyond r=  1.4606

VLOCAL1: 99.0% of the norm of Vloc inside     20.347 Ry
VLOCAL1: 99.9% of the norm of Vloc inside     46.372 Ry
atom: Maximum radius for 4*pi*r*r*local-pseudopot. charge    1.76189
atom: Maximum radius for r*vlocal+2*Zval:    1.53550
GHOST: No ghost state for L =  0
GHOST: No ghost state for L =  1
GHOST: No ghost state for L =  2
GHOST: No ghost state for L =  3

KBgen: Kleinman-Bylander projectors: 
   l= 0   rc=  1.634559   el= -1.363963   Ekb=  5.296955   kbcos=  0.335621
   l= 1   rc=  1.614250   el= -0.521451   Ekb= -5.259161   kbcos= -0.433408
   l= 2   rc=  1.718383   el=  0.001991   Ekb= -1.271464   kbcos= -0.007566
   l= 3   rc=  1.761893   el=  0.003093   Ekb= -0.494769   kbcos= -0.001015

KBgen: Total number of  Kleinman-Bylander projectors:   16
atom: -------------------------------------------------------------------------

atom: SANKEY-TYPE ORBITALS:
atom: Selected multiple-zeta basis: split     

SPLIT: Orbitals with angular momentum L= 0

SPLIT: Basis orbitals for state 2s

SPLIT: PAO cut-off radius determined from an
SPLIT: energy shift=  0.007350 Ry

   izeta = 1
                 lambda =    1.000000
                     rc =    4.071465
                 energy =   -1.356470
                kinetic =    1.176977
    potential(screened) =   -2.533447
       potential(ionic) =   -8.057990

   izeta = 2
                 rmatch =    2.905100
              splitnorm =    0.150000
                 energy =   -1.158343
                kinetic =    1.813009
    potential(screened) =   -2.971352
       potential(ionic) =   -8.901931

SPLIT: Orbitals with angular momentum L= 1

SPLIT: Basis orbitals for state 2p

SPLIT: PAO cut-off radius determined from an
SPLIT: energy shift=  0.007350 Ry

   izeta = 1
                 lambda =    1.000000
                     rc =    4.972977
                 energy =   -0.513884
                kinetic =    3.441732
    potential(screened) =   -3.955616
       potential(ionic) =   -9.287901

   izeta = 2
                 rmatch =    3.054066
              splitnorm =    0.150000
                 energy =   -0.318226
                kinetic =    5.125348
    potential(screened) =   -5.443573
       potential(ionic) =  -11.380999

POLgen: Perturbative polarization orbital with L=  2

POLgen: Polarization orbital for state 2p

   izeta = 1
                     rc =    4.972977
                 energy =    1.607437
                kinetic =    3.268125
    potential(screened) =   -1.660688
       potential(ionic) =   -5.973652
atom: Total number of Sankey-type orbitals: 13

atm_pop: Valence configuration (for local Pseudopot. screening):
 2s( 2.00)                                                            
 2p( 3.00)                                                            
Vna: chval, zval:    5.00000   5.00000

Vna:  Cut-off radius for the neutral-atom potential:   4.972977
comcore: Pseudo-core radius Rcore=  1.554824

atom: _________________________________________________________________________

prinput: Basis input ----------------------------------------------------------

PAO.BasisType split     

%block ChemicalSpeciesLabel
    1    6 C                       # Species index, atomic number, species label
    2    7 N                       # Species index, atomic number, species label
%endblock ChemicalSpeciesLabel

%block PAO.Basis                 # Define Basis set
C                     2                    # Species label, number of l-shells
 n=2   0   2                         # n, l, Nzeta 
   4.633      3.432   
   1.000      1.000   
 n=2   1   2 P   1                   # n, l, Nzeta, Polarization, NzetaPol
   5.659      3.653   
   1.000      1.000   
N                     2                    # Species label, number of l-shells
 n=2   0   2                         # n, l, Nzeta 
   4.071      2.905   
   1.000      1.000   
 n=2   1   2 P   1                   # n, l, Nzeta, Polarization, NzetaPol
   4.973      3.054   
   1.000      1.000   
%endblock PAO.Basis

prinput: ----------------------------------------------------------------------

coor:   Atomic-coordinates input format  =     Cartesian coordinates
coor:                                          (in Angstroms)

siesta: Atomic coordinates (Bohr) and species
siesta:      2.23554   1.32097   0.00000  1        1
siesta:      4.56367   2.66461   0.00000  1        2
siesta:     32.50328  21.48508   0.00000  1        3
siesta:     34.83141  22.82873   0.00000  1        4
siesta:     34.83116  17.45226   0.00000  1        5
siesta:     37.15930  18.79590   0.00000  1        6
siesta:     32.50291  13.41944   0.00000  1        7
siesta:     34.83104  14.76308   0.00000  1        8
siesta:     30.17465   9.38661   0.00000  1        9
siesta:     32.50278  10.73026   0.00000  1       10
siesta:     27.84639   5.35379   0.00000  1       11
siesta:     30.17453   6.69743   0.00000  1       12
siesta:     27.84714  21.48508   0.00000  1       13
siesta:     30.17527  22.82873   0.00000  1       14
siesta:      6.89168   1.32097   0.00000  1       15
siesta:      9.21981   2.66461   0.00000  1       16
siesta:     11.54782   1.32097   0.00000  1       17
siesta:     13.87595   2.66461   0.00000  1       18
siesta:     16.20396   1.32097   0.00000  1       19
siesta:     18.53210   2.66461   0.00000  1       20
siesta:     20.86199   1.32097   0.00000  1       21
siesta:     23.19013   2.66461   0.00000  1       22
siesta:     25.51813   1.32097   0.00000  1       23
siesta:     27.84627   2.66461   0.00000  1       24
siesta:      4.56380   5.35379   0.00000  1       25
siesta:      6.89193   6.69743   0.00000  1       26
siesta:      9.21994   5.35379   0.00000  1       27
siesta:     11.54807   6.69743   0.00000  1       28
siesta:     13.87608   5.35379   0.00000  1       29
siesta:     16.20421   6.69743   0.00000  1       30
siesta:     18.53411   5.35379   0.00000  1       31
siesta:     20.86224   6.69743   0.00000  1       32
siesta:     23.19025   5.35379   0.00000  1       33
siesta:     25.51838   6.69743   0.00000  1       34
siesta:      6.89205   9.38661   0.00000  1       35
siesta:      9.22019  10.73026   0.00000  1       36
siesta:     11.54820   9.38661   0.00000  1       37
siesta:     13.87633  10.73026   0.00000  1       38
siesta:     16.20434   9.38661   0.00000  1       39
siesta:     18.53247  10.73026   0.00000  1       40
siesta:     20.86237   9.38661   0.00000  1       41
siesta:     23.19050  10.73026   0.00000  1       42
siesta:      9.22031  13.41944   0.00000  1       43
siesta:     11.54845  14.76308   0.00000  1       44
siesta:     13.87645  13.41944   0.00000  1       45
siesta:     11.54857  17.45226   0.00000  1       46
siesta:     13.87670  18.79590   0.00000  1       47
siesta:     18.53284  18.79590   0.00000  1       48
siesta:     13.87683  21.48508   0.00000  1       49
siesta:     16.20496  22.82873   0.00000  1       50
siesta:     18.53486  21.48508   0.00000  1       51
siesta:     20.86299  22.82873   0.00000  1       52
siesta:     25.51851   9.38661   0.00000  1       53
siesta:     27.84664  10.73026   0.00000  1       54
siesta:     23.19063  13.41944   0.00000  1       55
siesta:     25.51876  14.76308   0.00000  1       56
siesta:     20.86274  17.45226   0.00000  1       57
siesta:     23.19088  18.79590   0.00000  1       58
siesta:     27.84677  13.41944   0.00000  1       59
siesta:     30.17490  14.76308   0.00000  1       60
siesta:     25.51888  17.45226   0.00000  1       61
siesta:     27.84702  18.79590   0.00000  1       62
siesta:     23.19100  21.48508   0.00000  1       63
siesta:     25.51913  22.82873   0.00000  1       64
siesta:     30.17503  17.45226   0.00000  1       65
siesta:     32.50316  18.79590   0.00000  1       66
siesta:     37.16131  21.48508   0.00000  1       67
siesta:     39.48945  22.82873   0.00000  1       68
siesta:     16.20459  14.76308   0.00000  2       69
siesta:     18.53448  13.41944   0.00000  2       70
siesta:     20.86262  14.76308   0.00000  2       71
siesta:     16.20471  17.45226   0.00000  2       72

siesta: System type = slab      

initatomlists: Number of atoms, orbitals, and projectors:     72   936  1152

siesta: ******************** Simulation parameters ****************************
siesta:
siesta: The following are some of the parameters of the simulation.
siesta: A complete list of the parameters used, including default values,
siesta: can be found in file out.fdf
siesta:
redata: Non-Collinear-spin run           =     F
redata: SpinPolarized (Up/Down) run      =     F
redata: Number of spin components        =     1
redata: Long output                      =     F
redata: Number of Atomic Species         =        2
redata: Charge density info will appear in .RHO file
redata: Write Mulliken Pop.              =     NO
redata: Mesh Cutoff                      =   200.0000  Ry
redata: Net charge of the system         =     0.0000 |e|
redata: Max. number of SCF Iter          =      500
redata: SCF convergence failure will abort job
redata: Performing Pulay mixing using    =    10 iterations
redata: Mix DM in first SCF step ?       =     F
redata: Write Pulay info on disk?        =     F
redata: Discard 1st Pulay DM after  kick =     F
redata: New DM Mixing Weight             =     0.0500
redata: New DM Occupancy tolerance       = 0.000000000001
redata: No kicks to SCF
redata: DM Mixing Weight for Kicks       =     0.5000
redata: DM Tolerance for SCF             =     0.000100
redata: Require Energy convergence for SCF =     F
redata: DM Energy tolerance for SCF      =     0.000100 eV
redata: Require Harris convergence for SCF =     F
redata: DM Harris energy tolerance for SCF =     0.000100 eV
redata: Using Saved Data (generic)   =     F
redata: Use continuation files for DM    =     T
redata: Neglect nonoverlap interactions  =     F
redata: Method of Calculation            =     Diagonalization
redata: Divide and Conquer               =     T
redata: Electronic Temperature           =     0.0019  Ry
redata: Fix the spin of the system       =     F
redata: Dynamics option                  =     Verlet MD run
redata: Initial MD time step             =        1
redata:   Final MD time step             =        1
redata: Length of MD time step           =     1.0000  fs
redata: Initial Temperature of MD run    =     0.0000  K
redata: Perform a MD quench              =     F
redata: ***********************************************************************
Total number of electrons:   292.000000
Total ionic charge:   292.000000

* ProcessorY, Blocksize:    2  24

k-point displ. along   1 input, could be:     0.00    0.50
k-point displ. along   2 input, could be:     0.00    0.50
 Kpoints in:          364 . Kpoints trimmed:          352

siesta: k-grid: Number of k-points =   352
siesta: k-grid: Cutoff (effective) =     5.000 Ang
siesta: k-grid: Supercell and displacements
siesta: k-grid:   26   0   0      0.000
siesta: k-grid:    0  26   0      0.000
siesta: k-grid:    0   0   1      0.000
Naive supercell factors:     2    2    2

superc: Internal auxiliary supercell:     2 x     2 x     2  =       8
superc: Number of atoms, orbitals, and projectors:    576   7488   9216

* Maximum dynamic memory allocated =     6 MB

siesta:                 ==============================
                            Begin MD step =      1
                        ==============================

superc: Internal auxiliary supercell:     2 x     2 x     2  =       8
superc: Number of atoms, orbitals, and projectors:    576   7488   9216

outcell: Unit cell vectors (Ang):
       14.785000    0.000000    0.000000
        7.393000   12.805052    0.000000
        0.000000    0.000000   10.000000

outcell: Cell vector modules (Ang)   :   14.785000   14.786000   10.000000
outcell: Cell angles (23,13,12) (deg):     90.0000     90.0000     60.0000
outcell: Cell volume (Ang**3)        :   1893.2269
New_DM. Step:     1
Initializing Density Matrix...

iodm: Reading Density Matrix from files

InitMesh: MESH =   120 x   120 x    90 =     1296000
InitMesh: Mesh cutoff (required, used) =   200.000   223.865 Ry

* Maximum dynamic memory allocated =   193 MB

stepf: Fermi-Dirac step function

siesta: Program's energy decomposition (eV):
siesta: Ebs     =     -4044.671646
siesta: Eions   =     19045.998448
siesta: Ena     =      4015.415730
siesta: Ekin    =      8166.421844
siesta: Enl     =      -909.951626
siesta: DEna    =      -269.908084
siesta: DUscf   =        24.762755
siesta: DUext   =         0.000000
siesta: Exc     =     -4133.282914
siesta: eta*DQ  =         0.000000
siesta: Emadel  =         0.000000
siesta: Emeta   =         0.000000
siesta: Emolmec =         0.000000
siesta: Ekinion =         0.000000
siesta: Eharris =    -12152.568463
siesta: Etot    =    -12152.540743
siesta: FreeEng =    -12152.540743

siesta: iscf   Eharris(eV)      E_KS(eV)   FreeEng(eV)   dDmax  Ef(eV)
siesta:    1   -12152.5685   -12152.5407   -12152.5407  0.0001 -3.9803
timer: Routine,Calls,Time,% = IterSCF        1    6611.834  99.79
elaps: Routine,Calls,Wall,% = IterSCF        1     827.512  99.79

siesta: E_KS(eV) =           -12152.5685

siesta: E_KS - E_eggbox =    -12152.5685

siesta: Atomic forces (eV/Ang):
----------------------------------------
   Tot    0.248880   -0.257860    0.000000
----------------------------------------
   Max    1.277719
   Res    0.277287    sqrt( Sum f_i^2 / 3N )
----------------------------------------
   Max    1.277719    constrained

Stress-tensor-Voigt (kbar):      -23.88      -23.14        0.06       -0.38        0.00        0.00
(Free)E + p*V (eV/cell)   -12134.0697
Target enthalpy (eV/cell)   -12152.5685

siesta: Stress tensor (static) (eV/Ang**3):
        -0.014907   -0.000239    0.000000
        -0.000239   -0.014443    0.000000
         0.000000    0.000000    0.000037

siesta: Pressure (static):         15.65507198  kBar

siesta: Stress tensor (total) (eV/Ang**3):
        -0.014907   -0.000239    0.000000
        -0.000239   -0.014443    0.000000
         0.000000    0.000000    0.000037

siesta: Pressure (total):         15.65507198  kBar

siesta: Temp_ion =       0.000 K

* Maximum dynamic memory allocated =   207 MB
Computing bands...

siesta: Program's energy decomposition (eV):
siesta: Ebs     =     -4044.671646
siesta: Eions   =     19045.998448
siesta: Ena     =      4015.415730
siesta: Ekin    =      8166.393954
siesta: Enl     =      -909.947472
siesta: DEna    =      -269.912013
siesta: DUscf   =        24.765030
siesta: DUext   =         0.000000
siesta: Exc     =     -4133.285239
siesta: eta*DQ  =         0.000000
siesta: Emadel  =         0.000000
siesta: Emeta   =         0.000000
siesta: Emolmec =         0.000000
siesta: Ekinion =         0.000000
siesta: Eharris =    -12152.568463
siesta: Etot    =    -12152.568457
siesta: FreeEng =    -12152.568472

siesta: Final energy (eV):
siesta:  Band Struct. =   -4044.671646
siesta:       Kinetic =    8166.393954
siesta:       Hartree =   23888.482602
siesta:    Ext. field =       0.000000
siesta:   Exch.-corr. =   -4133.285239
siesta:  Ion-electron =  -55335.263381
siesta:       Ion-ion =   15261.103606
siesta:       Ekinion =       0.000000
siesta:         Total =  -12152.568457

siesta: Atomic forces (eV/Ang):
siesta:      1    0.149918   -0.403153    0.000000
siesta:      2    0.144195   -0.055046    0.000000
siesta:      3    0.052742    0.240553    0.000000
siesta:      4   -0.166886    0.057397    0.000000
siesta:      5   -0.203455   -0.115306    0.000000
siesta:      6    0.420997    0.193367    0.000000
siesta:      7    0.085480    0.059138    0.000000
siesta:      8   -0.146947    0.137080    0.000000
siesta:      9    0.140953   -0.170203    0.000000
siesta:     10    0.038656   -0.174189    0.000000
siesta:     11   -0.190448   -0.055097    0.000000
siesta:     12    0.205261    0.157829    0.000000
siesta:     13   -0.112212    0.091701    0.000000
siesta:     14    0.090613    0.074268    0.000000
siesta:     15   -0.292331   -0.037072    0.000000
siesta:     16    0.167474    0.014496    0.000000
siesta:     17   -0.061214    0.120022    0.000000
siesta:     18   -0.042186    0.115500    0.000000
siesta:     19    0.162581   -0.112172    0.000000
siesta:     20    0.045264   -0.171041    0.000000
siesta:     21   -0.191170   -0.092945    0.000000
siesta:     22    0.020075    0.101263    0.000000
siesta:     23    0.173137    0.144760    0.000000
siesta:     24   -0.237476    0.080755    0.000000
siesta:     25   -0.012731    0.100952    0.000000
siesta:     26   -0.147966    0.093301    0.000000
siesta:     27    0.128903    0.011551    0.000000
siesta:     28    0.028604   -0.215304    0.000000
siesta:     29   -0.193292   -0.094464    0.000000
siesta:     30    0.449393    0.206160    0.000000
siesta:     31   -0.002867    0.043595    0.000000
siesta:     32   -0.467100    0.120941    0.000000
siesta:     33    0.207739   -0.081631    0.000000
siesta:     34    0.012973   -0.232147    0.000000
siesta:     35   -0.153623   -0.082851    0.000000
siesta:     36    0.022014    0.056667    0.000000
siesta:     37   -0.017182    0.458147    0.000000
siesta:     38   -0.276776    0.842987    0.000000
siesta:     39    0.874323    0.169698    0.000000
siesta:     40   -0.092017    0.198131    0.000000
siesta:     41   -0.833555    0.345057    0.000000
siesta:     42    0.394687    0.728195    0.000000
siesta:     43    0.325530   -0.350631    0.000000
siesta:     44    0.703775   -0.519906    0.000000
siesta:     45    0.261036   -0.027813    0.000000
siesta:     46    0.427295    0.699390    0.000000
siesta:     47    0.005345   -0.821331    0.000000
siesta:     48   -0.008446   -1.277719    0.000000
siesta:     49    0.327933   -0.575720    0.000000
siesta:     50    0.308190    0.485889    0.000000
siesta:     51   -0.347691   -0.235966    0.000000
siesta:     52    0.023179   -0.054394    0.000000
siesta:     53   -0.028401    0.428375    0.000000
siesta:     54   -0.046375    0.115161    0.000000
siesta:     55   -0.719029   -0.417844    0.000000
siesta:     56   -0.644340   -0.015816    0.000000
siesta:     57   -1.099776   -0.679971    0.000000
siesta:     58   -0.046146   -0.389181    0.000000
siesta:     59   -0.200237   -0.453267    0.000000
siesta:     60    0.071650    0.231430    0.000000
siesta:     61    0.269717    0.452218    0.000000
siesta:     62   -0.406241   -0.040412    0.000000
siesta:     63   -0.080623   -0.023562    0.000000
siesta:     64    0.142793   -0.237292    0.000000
siesta:     65    0.203353   -0.184605    0.000000
siesta:     66    0.061193   -0.190807    0.000000
siesta:     67    0.090293    0.009826    0.000000
siesta:     68   -0.302033   -0.369167    0.000000
siesta:     69   -0.483266    0.251727    0.000000
siesta:     70    0.429404   -0.350908    0.000000
siesta:     71    0.481970    0.688854    0.000000
siesta:     72    0.354278    0.724691    0.000000
siesta: ----------------------------------------
siesta:    Tot    0.248880   -0.257860    0.000000

siesta: Stress tensor (static) (eV/Ang**3):
siesta:    -0.014907   -0.000239    0.000000
siesta:    -0.000239   -0.014443    0.000000
siesta:     0.000000    0.000000    0.000037

siesta: Cell volume =       1893.226895 Ang**3

siesta: Pressure (static):
siesta:                Solid            Molecule  Units
siesta:           0.00010642          0.00015365  Ry/Bohr**3
siesta:           0.00977102          0.01410739  eV/Ang**3
siesta:          15.65507198         22.60278167  kBar
(Free)E+ p_basis*V_orbitals  =      -12122.402707
(Free)Eharris+ p_basis*V_orbitals  =      -12122.430427

siesta: Electric dipole (a.u.)  =    0.000000    0.000000    0.000000
siesta: Electric dipole (Debye) =    0.000000    0.000000    0.000000

* Maximum dynamic memory allocated : Node    0 =   207 MB
* Maximum dynamic memory allocated : Node    1 =    74 MB
* Maximum dynamic memory allocated : Node    2 =    76 MB
* Maximum dynamic memory allocated : Node    3 =   196 MB
* Maximum dynamic memory allocated : Node    4 =   204 MB
* Maximum dynamic memory allocated : Node    5 =    73 MB
* Maximum dynamic memory allocated : Node    6 =    75 MB
* Maximum dynamic memory allocated : Node    7 =   188 MB

* Maximum memory occured during matrixMtoO                    

timer: CPU execution times:
timer:  Routine       Calls   Time/call    Tot.time        %
timer:  siesta            1    7614.983    7614.983   100.00
timer:  Setup             1       4.258       4.258     0.06
timer:  bands             3     270.856     812.569    10.67
timer:  writewave         1       0.041       0.041     0.00
timer:  KSV_init          1       0.008       0.008     0.00
timer:  IterMD            1    6789.697    6789.697    89.16
timer:  hsparse           1       0.257       0.257     0.00
timer:  overlap           1       5.091       5.091     0.07
timer:  IterSCF           1    6611.834    6611.834    86.83
timer:  kinefsm           2       2.633       5.265     0.07
timer:  nlefsm            2      19.128      38.256     0.50
timer:  DHSCF             2     125.079     250.159     3.29
timer:  DHSCF1            1       0.762       0.762     0.01
timer:  DHSCF2            1      33.400      33.400     0.44
timer:  REORD            18       0.011       0.198     0.00
timer:  POISON            3       2.294       6.881     0.09
timer:  DHSCF3            2      91.756     183.512     2.41
timer:  rhoofd            2      17.174      34.348     0.45
timer:  cellXC            2       3.542       7.084     0.09
timer:  vmat              2      47.874      95.747     1.26
timer:  MolMec            2       0.000       0.000     0.00
timer:  diagon            1    6449.762    6449.762    84.70
timer:  c-eigval        473       6.730    3183.107    41.80
timer:  c-buildHS       473       0.119      56.164     0.74
timer:  cdiag           825       6.851    5651.935    74.22
timer:  cdiag1          825       0.429     353.835     4.65
timer:  cdiag2          825       1.921    1585.051    20.81
timer:  cdiag3          825       3.971    3275.917    43.02
timer:  cdiag4          825       0.174     143.377     1.88
timer:  c-eigvec        352       7.246    2550.646    33.50
timer:  c-buildD        352       4.336    1526.188    20.04
timer:  DHSCF4            1      32.315      32.315     0.42
timer:  dfscf             1      30.449      30.449     0.40
timer:  overfsm           1       0.380       0.380     0.00
timer:  optical           1       7.450       7.450     0.10
  

elaps: ELAPSED times:
elaps:  Routine       Calls   Time/call    Tot.time        %
elaps:  siesta            1     953.007     953.007   100.00
elaps:  Setup             1       0.555       0.555     0.06
elaps:  bands             3      33.909     101.727    10.67
elaps:  writewave         1       0.005       0.005     0.00
elaps:  KSV_init          1       0.001       0.001     0.00
elaps:  IterMD            1     849.715     849.715    89.16
elaps:  hsparse           1       0.032       0.032     0.00
elaps:  overlap           1       0.522       0.522     0.05
elaps:  IterSCF           1     827.512     827.512    86.83
elaps:  kinefsm           2       0.274       0.547     0.06
elaps:  nlefsm            2       2.374       4.748     0.50
elaps:  DHSCF             2      17.321      34.643     3.64
elaps:  DHSCF1            1       0.097       0.097     0.01
elaps:  DHSCF2            1       4.176       4.176     0.44
elaps:  REORD            18       0.001       0.025     0.00
elaps:  POISON            3       0.286       0.859     0.09
elaps:  DHSCF3            2      11.481      22.961     2.41
elaps:  rhoofd            2       3.770       7.540     0.79
elaps:  cellXC            2       0.443       0.885     0.09
elaps:  vmat              2       5.989      11.979     1.26
elaps:  MolMec            2       0.000       0.000     0.00
elaps:  diagon            1     807.181     807.181    84.70
elaps:  c-eigval        473       0.842     398.278    41.79
elaps:  c-buildHS       473       0.016       7.700     0.81
elaps:  cdiag           825       0.848     699.194    73.37
elaps:  cdiag1          825       0.054      44.238     4.64
elaps:  cdiag2          825       0.240     198.335    20.81
elaps:  cdiag3          825       0.498     410.453    43.07
elaps:  cdiag4          825       0.022      18.277     1.92
elaps:  c-eigvec        352       0.889     312.925    32.84
elaps:  c-buildD        352       0.561     197.301    20.70
elaps:  DHSCF4            1       7.386       7.386     0.78
elaps:  dfscf             1       7.005       7.005     0.74
elaps:  overfsm           1       0.048       0.048     0.01
elaps:  optical           1       0.001       0.001     0.00
  
>> End of run:  10-DEC-2015  22:55:53
