Siesta Version:                                        siesta-3.2-pl-3
Architecture  : x86_64-unknown-linux-gnu--unknown
Compiler flags: mpiifort -g -O2 -fPIC -xSSE4.1 -fp-model source -shared-intel 
PARALLEL version

* Running on    8 nodes in parallel
>> Start of run:  29-NOV-2015   6:37:58

                           ***********************       
                           *  WELCOME TO SIESTA  *       
                           ***********************       

reinit: Reading from standard input
************************** Dump of input data file ****************************
#(1) General system descriptors
SystemName            GRP_doping    # Descriptive name of the system
SystemLabel           GRP_doping    # Short name for naming files
%include STRUCT.fdf
%include KPT.fdf
%include BASIS.fdf
#%include TS.fdf # for transiesta calculation
#(4) DFT, Grid, SCF
XC.functional         GGA           # LDA or GGA (default = LDA)
XC.authors            PBE           # CA (Ceperley-Aldr) = PZ
                                    #    (Perdew-Zunger) - LDA - Default
                                    # PW92 (Perdew-Wang-92) - LDA
                                    # PBE (Perdew-Burke-Ernzerhof) - GGA
MeshCutoff            200.000000    Ry      # Default: 50.0 Ry ~ 0.444 Bohr
                                    #         100.0 Ry ~ 0.314 Bohr
MaxSCFIterations      500           # Default: 50
DM.MixingWeight       0.05          # Default: 0.25
DM.NumberPulay        10            # Default: 0
DM.PulayOnFile        F             # SystemLabel.P1, SystemLabel.P2
DM.Tolerance          1.d-4         # Default: 1.d-4
DM.UseSaveDM          .true.        # because of the bug
SCFMustConverge       .true.
NeglNonOverlapInt     F             # Default: F
#(5) Eigenvalue problem: order-N or diagonalization
SolutionMethod        Diagon        # or Transiesta
ElectronicTemperature 300.0 K       # Default: 300.0 K
#(6) Molecular dynamics and relaxations
#MD.TypeOfRun          CG            # Type of dynamics:
#MD.VariableCell       F
#MD.NumCGsteps         0           # 0 for single-point / 100 for gopt
#MD.MaxCGDispl         0.2 Bohr      # Default: 0.2 Bohr
#MD.MaxForceTol        0.02 eV/Ang   # Default: 0.04 eV/Ang
#MD.MaxStressTol       1.0 GPa       # Default: 1.0 GPa
# Geometry Constraints
#%block GeometryConstraints
#	position from 1 to 44
#%endblock GeometryConstraints
************************** End of input data file *****************************

reinit: -----------------------------------------------------------------------
reinit: System Name: GRP_doping
reinit: -----------------------------------------------------------------------
reinit: System Label: GRP_doping                                                  
reinit: -----------------------------------------------------------------------

initatom: Reading input for the pseudopotentials and atomic orbitals ----------
 Species number:            1  Label: C Atomic number:           6
 Species number:            2  Label: N Atomic number:           7
Ground state valence configuration:   2s02  2p02
Reading pseudopotential information in formatted form from C.psf

Valence configuration for pseudopotential generation:
2s( 2.00) rc: 1.54
2p( 2.00) rc: 1.54
3d( 0.00) rc: 1.54
4f( 0.00) rc: 1.54
Ground state valence configuration:   2s02  2p03
Reading pseudopotential information in formatted form from N.psf

Valence configuration for pseudopotential generation:
2s( 2.00) rc: 1.48
2p( 3.00) rc: 1.48
3d( 0.00) rc: 1.48
4f( 0.00) rc: 1.48
For C, standard SIESTA heuristics set lmxkb to 3
 (one more than the basis l, including polarization orbitals).
Use PS.lmax or PS.KBprojectors blocks to override.
For N, standard SIESTA heuristics set lmxkb to 3
 (one more than the basis l, including polarization orbitals).
Use PS.lmax or PS.KBprojectors blocks to override.

<basis_specs>
===============================================================================
C                    Z=   6    Mass=  12.010        Charge= 0.17977+309
Lmxo=1 Lmxkb= 3    BasisType=split      Semic=F
L=0  Nsemic=0  Cnfigmx=2
          n=1  nzeta=2  polorb=0
            splnorm:   0.15000    
               vcte:    0.0000    
               rinn:    0.0000    
                rcs:    0.0000      0.0000    
            lambdas:    1.0000      1.0000    
L=1  Nsemic=0  Cnfigmx=2
          n=1  nzeta=2  polorb=1
            splnorm:   0.15000    
               vcte:    0.0000    
               rinn:    0.0000    
                rcs:    0.0000      0.0000    
            lambdas:    1.0000      1.0000    
-------------------------------------------------------------------------------
L=0  Nkbl=1  erefs: 0.17977+309
L=1  Nkbl=1  erefs: 0.17977+309
L=2  Nkbl=1  erefs: 0.17977+309
L=3  Nkbl=1  erefs: 0.17977+309
===============================================================================
</basis_specs>

atom: Called for C                     (Z =   6)

read_vps: Pseudopotential generation method:
read_vps: ATM3      Troullier-Martins                       
Total valence charge:    4.00000

read_vps: Pseudopotential includes a core correction:
read_vps: Pseudo-core for xc-correction

xc_check: Exchange-correlation functional:
xc_check: GGA Perdew, Burke & Ernzerhof 1996
V l=0 = -2*Zval/r beyond r=  1.5227
V l=1 = -2*Zval/r beyond r=  1.5227
V l=2 = -2*Zval/r beyond r=  1.5227
V l=3 = -2*Zval/r beyond r=  1.5038
All V_l potentials equal beyond r=  1.5227
This should be close to max(r_c) in ps generation
All pots = -2*Zval/r beyond r=  1.5227

VLOCAL1: 99.0% of the norm of Vloc inside     18.722 Ry
VLOCAL1: 99.9% of the norm of Vloc inside     42.668 Ry
atom: Maximum radius for 4*pi*r*r*local-pseudopot. charge    1.83678
atom: Maximum radius for r*vlocal+2*Zval:    1.58088
GHOST: No ghost state for L =  0
GHOST: No ghost state for L =  1
GHOST: No ghost state for L =  2
GHOST: No ghost state for L =  3

KBgen: Kleinman-Bylander projectors: 
   l= 0   rc=  1.704034   el= -1.009801   Ekb=  5.335044   kbcos=  0.316824
   l= 1   rc=  1.704034   el= -0.388707   Ekb= -3.785862   kbcos= -0.366464
   l= 2   rc=  1.791422   el=  0.001971   Ekb= -0.970471   kbcos= -0.009212
   l= 3   rc=  1.859892   el=  0.003065   Ekb= -0.399525   kbcos= -0.001223

KBgen: Total number of  Kleinman-Bylander projectors:   16
atom: -------------------------------------------------------------------------

atom: SANKEY-TYPE ORBITALS:
atom: Selected multiple-zeta basis: split     

SPLIT: Orbitals with angular momentum L= 0

SPLIT: Basis orbitals for state 2s

SPLIT: PAO cut-off radius determined from an
SPLIT: energy shift=  0.007350 Ry

   izeta = 1
                 lambda =    1.000000
                     rc =    4.632753
                 energy =   -1.002270
                kinetic =    0.855760
    potential(screened) =   -1.858031
       potential(ionic) =   -5.417575

   izeta = 2
                 rmatch =    3.431921
              splitnorm =    0.150000
                 energy =   -0.867111
                kinetic =    1.300804
    potential(screened) =   -2.167915
       potential(ionic) =   -5.962684

SPLIT: Orbitals with angular momentum L= 1

SPLIT: Basis orbitals for state 2p

SPLIT: PAO cut-off radius determined from an
SPLIT: energy shift=  0.007350 Ry

   izeta = 1
                 lambda =    1.000000
                     rc =    5.658549
                 energy =   -0.381140
                kinetic =    2.399701
    potential(screened) =   -2.780841
       potential(ionic) =   -6.206085

   izeta = 2
                 rmatch =    3.653288
              splitnorm =    0.150000
                 energy =   -0.249149
                kinetic =    3.542762
    potential(screened) =   -3.791911
       potential(ionic) =   -7.581078

POLgen: Perturbative polarization orbital with L=  2

POLgen: Polarization orbital for state 2p

   izeta = 1
                     rc =    5.658549
                 energy =    1.109913
                kinetic =    2.304789
    potential(screened) =   -1.194876
       potential(ionic) =   -4.013592
atom: Total number of Sankey-type orbitals: 13

atm_pop: Valence configuration (for local Pseudopot. screening):
 2s( 2.00)                                                            
 2p( 2.00)                                                            
Vna: chval, zval:    4.00000   4.00000

Vna:  Cut-off radius for the neutral-atom potential:   5.658549
comcore: Pseudo-core radius Rcore=  1.791422

atom: _________________________________________________________________________

<basis_specs>
===============================================================================
N                    Z=   7    Mass=  14.010        Charge= 0.17977+309
Lmxo=1 Lmxkb= 3    BasisType=split      Semic=F
L=0  Nsemic=0  Cnfigmx=2
          n=1  nzeta=2  polorb=0
            splnorm:   0.15000    
               vcte:    0.0000    
               rinn:    0.0000    
                rcs:    0.0000      0.0000    
            lambdas:    1.0000      1.0000    
L=1  Nsemic=0  Cnfigmx=2
          n=1  nzeta=2  polorb=1
            splnorm:   0.15000    
               vcte:    0.0000    
               rinn:    0.0000    
                rcs:    0.0000      0.0000    
            lambdas:    1.0000      1.0000    
-------------------------------------------------------------------------------
L=0  Nkbl=1  erefs: 0.17977+309
L=1  Nkbl=1  erefs: 0.17977+309
L=2  Nkbl=1  erefs: 0.17977+309
L=3  Nkbl=1  erefs: 0.17977+309
===============================================================================
</basis_specs>

atom: Called for N                     (Z =   7)

read_vps: Pseudopotential generation method:
read_vps: ATM3      Troullier-Martins                       
Total valence charge:    5.00000

read_vps: Pseudopotential includes a core correction:
read_vps: Pseudo-core for xc-correction

xc_check: Exchange-correlation functional:
xc_check: GGA Perdew, Burke & Ernzerhof 1996
V l=0 = -2*Zval/r beyond r=  1.4606
V l=1 = -2*Zval/r beyond r=  1.4606
V l=2 = -2*Zval/r beyond r=  1.4606
V l=3 = -2*Zval/r beyond r=  1.4606
All V_l potentials equal beyond r=  1.4606
This should be close to max(r_c) in ps generation
All pots = -2*Zval/r beyond r=  1.4606

VLOCAL1: 99.0% of the norm of Vloc inside     20.347 Ry
VLOCAL1: 99.9% of the norm of Vloc inside     46.372 Ry
atom: Maximum radius for 4*pi*r*r*local-pseudopot. charge    1.76189
atom: Maximum radius for r*vlocal+2*Zval:    1.53550
GHOST: No ghost state for L =  0
GHOST: No ghost state for L =  1
GHOST: No ghost state for L =  2
GHOST: No ghost state for L =  3

KBgen: Kleinman-Bylander projectors: 
   l= 0   rc=  1.634559   el= -1.363963   Ekb=  5.296955   kbcos=  0.335621
   l= 1   rc=  1.614250   el= -0.521451   Ekb= -5.259161   kbcos= -0.433408
   l= 2   rc=  1.718383   el=  0.001991   Ekb= -1.271464   kbcos= -0.007566
   l= 3   rc=  1.761893   el=  0.003093   Ekb= -0.494769   kbcos= -0.001015

KBgen: Total number of  Kleinman-Bylander projectors:   16
atom: -------------------------------------------------------------------------

atom: SANKEY-TYPE ORBITALS:
atom: Selected multiple-zeta basis: split     

SPLIT: Orbitals with angular momentum L= 0

SPLIT: Basis orbitals for state 2s

SPLIT: PAO cut-off radius determined from an
SPLIT: energy shift=  0.007350 Ry

   izeta = 1
                 lambda =    1.000000
                     rc =    4.071465
                 energy =   -1.356470
                kinetic =    1.176977
    potential(screened) =   -2.533447
       potential(ionic) =   -8.057990

   izeta = 2
                 rmatch =    2.905100
              splitnorm =    0.150000
                 energy =   -1.158343
                kinetic =    1.813009
    potential(screened) =   -2.971352
       potential(ionic) =   -8.901931

SPLIT: Orbitals with angular momentum L= 1

SPLIT: Basis orbitals for state 2p

SPLIT: PAO cut-off radius determined from an
SPLIT: energy shift=  0.007350 Ry

   izeta = 1
                 lambda =    1.000000
                     rc =    4.972977
                 energy =   -0.513884
                kinetic =    3.441732
    potential(screened) =   -3.955616
       potential(ionic) =   -9.287901

   izeta = 2
                 rmatch =    3.054066
              splitnorm =    0.150000
                 energy =   -0.318226
                kinetic =    5.125348
    potential(screened) =   -5.443573
       potential(ionic) =  -11.380999

POLgen: Perturbative polarization orbital with L=  2

POLgen: Polarization orbital for state 2p

   izeta = 1
                     rc =    4.972977
                 energy =    1.607437
                kinetic =    3.268125
    potential(screened) =   -1.660688
       potential(ionic) =   -5.973652
atom: Total number of Sankey-type orbitals: 13

atm_pop: Valence configuration (for local Pseudopot. screening):
 2s( 2.00)                                                            
 2p( 3.00)                                                            
Vna: chval, zval:    5.00000   5.00000

Vna:  Cut-off radius for the neutral-atom potential:   4.972977
comcore: Pseudo-core radius Rcore=  1.554824

atom: _________________________________________________________________________

prinput: Basis input ----------------------------------------------------------

PAO.BasisType split     

%block ChemicalSpeciesLabel
    1    6 C                       # Species index, atomic number, species label
    2    7 N                       # Species index, atomic number, species label
%endblock ChemicalSpeciesLabel

%block PAO.Basis                 # Define Basis set
C                     2                    # Species label, number of l-shells
 n=2   0   2                         # n, l, Nzeta 
   4.633      3.432   
   1.000      1.000   
 n=2   1   2 P   1                   # n, l, Nzeta, Polarization, NzetaPol
   5.659      3.653   
   1.000      1.000   
N                     2                    # Species label, number of l-shells
 n=2   0   2                         # n, l, Nzeta 
   4.071      2.905   
   1.000      1.000   
 n=2   1   2 P   1                   # n, l, Nzeta, Polarization, NzetaPol
   4.973      3.054   
   1.000      1.000   
%endblock PAO.Basis

prinput: ----------------------------------------------------------------------

coor:   Atomic-coordinates input format  =     Cartesian coordinates
coor:                                          (in Angstroms)

siesta: Atomic coordinates (Bohr) and species
siesta:      2.23554   1.32097   0.00000  1        1
siesta:     34.83141  22.82873   0.00000  1        2
siesta:     34.83116  17.45226   0.00000  1        3
siesta:     37.15930  18.79590   0.00000  1        4
siesta:     32.50291  13.41944   0.00000  1        5
siesta:     34.83104  14.76308   0.00000  1        6
siesta:     30.17465   9.38661   0.00000  1        7
siesta:     32.50278  10.73026   0.00000  1        8
siesta:     27.84639   5.35379   0.00000  1        9
siesta:     30.17453   6.69743   0.00000  1       10
siesta:     27.84714  21.48508   0.00000  1       11
siesta:     30.17527  22.82873   0.00000  1       12
siesta:      6.89168   1.32097   0.00000  1       13
siesta:      9.21981   2.66461   0.00000  1       14
siesta:     13.87595   2.66461   0.00000  1       15
siesta:     16.20396   1.32097   0.00000  1       16
siesta:     18.53210   2.66461   0.00000  1       17
siesta:     23.19013   2.66461   0.00000  1       18
siesta:     25.51813   1.32097   0.00000  1       19
siesta:     27.84627   2.66461   0.00000  1       20
siesta:      4.56380   5.35379   0.00000  1       21
siesta:      6.89193   6.69743   0.00000  1       22
siesta:      9.21994   5.35379   0.00000  1       23
siesta:     11.54807   6.69743   0.00000  1       24
siesta:     13.87608   5.35379   0.00000  1       25
siesta:     16.20421   6.69743   0.00000  1       26
siesta:     18.53411   5.35379   0.00000  1       27
siesta:     20.86224   6.69743   0.00000  1       28
siesta:     23.19025   5.35379   0.00000  1       29
siesta:     25.51838   6.69743   0.00000  1       30
siesta:      9.22019  10.73026   0.00000  1       31
siesta:     11.54820   9.38661   0.00000  1       32
siesta:     13.87633  10.73026   0.00000  1       33
siesta:     18.53247  10.73026   0.00000  1       34
siesta:     20.86237   9.38661   0.00000  1       35
siesta:     23.19050  10.73026   0.00000  1       36
siesta:      9.22031  13.41944   0.00000  1       37
siesta:     11.54845  14.76308   0.00000  1       38
siesta:     13.87645  13.41944   0.00000  1       39
siesta:     16.20459  14.76308   0.00000  1       40
siesta:     18.53448  13.41944   0.00000  1       41
siesta:     20.86262  14.76308   0.00000  1       42
siesta:     13.87670  18.79590   0.00000  1       43
siesta:     16.20471  17.45226   0.00000  1       44
siesta:     18.53284  18.79590   0.00000  1       45
siesta:     13.87683  21.48508   0.00000  1       46
siesta:     16.20496  22.82873   0.00000  1       47
siesta:     18.53486  21.48508   0.00000  1       48
siesta:     20.86299  22.82873   0.00000  1       49
siesta:     27.84664  10.73026   0.00000  1       50
siesta:     23.19063  13.41944   0.00000  1       51
siesta:     25.51876  14.76308   0.00000  1       52
siesta:     23.19088  18.79590   0.00000  1       53
siesta:     27.84677  13.41944   0.00000  1       54
siesta:     30.17490  14.76308   0.00000  1       55
siesta:     25.51888  17.45226   0.00000  1       56
siesta:     27.84702  18.79590   0.00000  1       57
siesta:     23.19100  21.48508   0.00000  1       58
siesta:     25.51913  22.82873   0.00000  1       59
siesta:     30.17503  17.45226   0.00000  1       60
siesta:     32.50316  18.79590   0.00000  1       61
siesta:     37.16131  21.48508   0.00000  1       62
siesta:     39.48945  22.82873   0.00000  1       63
siesta:      4.56367   2.66461   0.00000  2       64
siesta:     32.50328  21.48508   0.00000  2       65
siesta:     11.54782   1.32097   0.00000  2       66
siesta:     20.86199   1.32097   0.00000  2       67
siesta:      6.89205   9.38661   0.00000  2       68
siesta:     16.20434   9.38661   0.00000  2       69
siesta:     11.54857  17.45226   0.00000  2       70
siesta:     25.51851   9.38661   0.00000  2       71
siesta:     20.86274  17.45226   0.00000  2       72

siesta: System type = slab      

initatomlists: Number of atoms, orbitals, and projectors:     72   936  1152

siesta: ******************** Simulation parameters ****************************
siesta:
siesta: The following are some of the parameters of the simulation.
siesta: A complete list of the parameters used, including default values,
siesta: can be found in file out.fdf
siesta:
redata: Non-Collinear-spin run           =     F
redata: SpinPolarized (Up/Down) run      =     F
redata: Number of spin components        =     1
redata: Long output                      =     F
redata: Number of Atomic Species         =        2
redata: Charge density info will appear in .RHO file
redata: Write Mulliken Pop.              =     NO
redata: Mesh Cutoff                      =   200.0000  Ry
redata: Net charge of the system         =     0.0000 |e|
redata: Max. number of SCF Iter          =      500
redata: SCF convergence failure will abort job
redata: Performing Pulay mixing using    =    10 iterations
redata: Mix DM in first SCF step ?       =     F
redata: Write Pulay info on disk?        =     F
redata: Discard 1st Pulay DM after  kick =     F
redata: New DM Mixing Weight             =     0.0500
redata: New DM Occupancy tolerance       = 0.000000000001
redata: No kicks to SCF
redata: DM Mixing Weight for Kicks       =     0.5000
redata: DM Tolerance for SCF             =     0.000100
redata: Require Energy convergence for SCF =     F
redata: DM Energy tolerance for SCF      =     0.000100 eV
redata: Require Harris convergence for SCF =     F
redata: DM Harris energy tolerance for SCF =     0.000100 eV
redata: Using Saved Data (generic)   =     F
redata: Use continuation files for DM    =     T
redata: Neglect nonoverlap interactions  =     F
redata: Method of Calculation            =     Diagonalization
redata: Divide and Conquer               =     T
redata: Electronic Temperature           =     0.0019  Ry
redata: Fix the spin of the system       =     F
redata: Dynamics option                  =     Verlet MD run
redata: Initial MD time step             =        1
redata:   Final MD time step             =        1
redata: Length of MD time step           =     1.0000  fs
redata: Initial Temperature of MD run    =     0.0000  K
redata: Perform a MD quench              =     F
redata: ***********************************************************************
Total number of electrons:   297.000000
Total ionic charge:   297.000000

* ProcessorY, Blocksize:    2  24

k-point displ. along   1 input, could be:     0.00    0.50
k-point displ. along   2 input, could be:     0.00    0.50
 Kpoints in:          364 . Kpoints trimmed:          352

siesta: k-grid: Number of k-points =   352
siesta: k-grid: Cutoff (effective) =     5.000 Ang
siesta: k-grid: Supercell and displacements
siesta: k-grid:   26   0   0      0.000
siesta: k-grid:    0  26   0      0.000
siesta: k-grid:    0   0   1      0.000
Naive supercell factors:     2    2    2

superc: Internal auxiliary supercell:     2 x     2 x     2  =       8
superc: Number of atoms, orbitals, and projectors:    576   7488   9216

* Maximum dynamic memory allocated =     6 MB

siesta:                 ==============================
                            Begin MD step =      1
                        ==============================

superc: Internal auxiliary supercell:     2 x     2 x     2  =       8
superc: Number of atoms, orbitals, and projectors:    576   7488   9216

outcell: Unit cell vectors (Ang):
       14.785000    0.000000    0.000000
        7.393000   12.805052    0.000000
        0.000000    0.000000   10.000000

outcell: Cell vector modules (Ang)   :   14.785000   14.786000   10.000000
outcell: Cell angles (23,13,12) (deg):     90.0000     90.0000     60.0000
outcell: Cell volume (Ang**3)        :   1893.2269
New_DM. Step:     1
Initializing Density Matrix...

iodm: Reading Density Matrix from files
 Read DM has different structure. Fixing...

InitMesh: MESH =   120 x   120 x    90 =     1296000
InitMesh: Mesh cutoff (required, used) =   200.000   223.865 Ry

* Maximum dynamic memory allocated =   187 MB

stepf: Fermi-Dirac step function

siesta: Program's energy decomposition (eV):
siesta: Ebs     =     -4256.516162
siesta: Eions   =     19849.732669
siesta: Ena     =      4064.210604
siesta: Ekin    =      8470.819111
siesta: Enl     =      -986.581743
siesta: DEna    =      -308.023718
siesta: DUscf   =       163.516813
siesta: DUext   =         0.000000
siesta: Exc     =     -4275.910709
siesta: eta*DQ  =         0.000000
siesta: Emadel  =         0.000000
siesta: Emeta   =         0.000000
siesta: Emolmec =         0.000000
siesta: Ekinion =         0.000000
siesta: Eharris =    -13091.861637
siesta: Etot    =    -12721.702310
siesta: FreeEng =    -12721.702310

siesta: iscf   Eharris(eV)      E_KS(eV)   FreeEng(eV)   dDmax  Ef(eV)
siesta:    1   -13091.8616   -12721.7023   -12721.7023  0.9967 -2.8338
timer: Routine,Calls,Time,% = IterSCF        1    6660.205  99.83
elaps: Routine,Calls,Wall,% = IterSCF        1     833.519  99.82
siesta:    2   -21841.1959   -11071.9423   -11072.0015 77.5383-13.1909
siesta:    3   -12938.8908   -12734.9681   -12735.0183  1.0281 -3.1018
siesta:    4   -12864.4524   -12744.1260   -12744.1472  1.0790 -2.9017
siesta:    5   -12809.9835   -12750.2706   -12750.2959  0.8168 -2.9605
siesta:    6   -12757.9417   -12751.6821   -12751.7181  0.4906 -2.9578
siesta:    7   -12745.0677   -12748.2582   -12748.3033  0.4284 -2.9890
siesta:    8   -12741.9332   -12742.5967   -12742.6376  0.3341 -3.1088
siesta:    9   -12741.8216   -12738.6237   -12738.6582  0.2040 -3.3336
siesta:   10   -12742.4156   -12735.6893   -12735.7265  0.1404 -3.5213
siesta:   11   -12740.5065   -12735.4669   -12735.5000  0.0793 -3.5305
siesta:   12   -12739.9457   -12734.9530   -12734.9879  0.0663 -3.5164
siesta:   13   -12739.8890   -12735.3538   -12735.3912  0.0612 -3.5081
siesta:   14   -12739.8444   -12735.7984   -12735.8358  0.0497 -3.4803
siesta:   15   -12739.8155   -12736.7399   -12736.7772  0.0284 -3.4248
siesta:   16   -12739.7963   -12737.2406   -12737.2780  0.0214 -3.4145
siesta:   17   -12739.7756   -12738.1037   -12738.1411  0.0126 -3.4036
siesta:   18   -12739.7757   -12738.4182   -12738.4556  0.0096 -3.4023
siesta:   19   -12739.7755   -12738.9491   -12738.9865  0.0056 -3.4060
siesta:   20   -12739.7744   -12739.3209   -12739.3582  0.0038 -3.4075
siesta:   21   -12739.7736   -12739.5638   -12739.6011  0.0017 -3.4095
siesta:   22   -12739.7734   -12739.6175   -12739.6548  0.0010 -3.4099
siesta:   23   -12739.7732   -12739.6729   -12739.7102  0.0007 -3.4102
siesta:   24   -12739.7731   -12739.6971   -12739.7344  0.0006 -3.4104
siesta:   25   -12739.7731   -12739.7188   -12739.7561  0.0004 -3.4107
siesta:   26   -12739.7731   -12739.7236   -12739.7609  0.0003 -3.4106
siesta:   27   -12739.7731   -12739.7501   -12739.7874  0.0002 -3.4102
siesta:   28   -12739.7731   -12739.7573   -12739.7946  0.0001 -3.4101
siesta:   29   -12739.7731   -12739.7608   -12739.7982  0.0001 -3.4101
siesta:   30   -12739.7731   -12739.7654   -12739.8027  0.0001 -3.4101

siesta: E_KS(eV) =           -12739.7711

siesta: E_KS - E_eggbox =    -12739.7711

siesta: Atomic forces (eV/Ang):
----------------------------------------
   Tot    0.198514   -0.294067    0.000000
----------------------------------------
   Max    1.111765
   Res    0.306310    sqrt( Sum f_i^2 / 3N )
----------------------------------------
   Max    1.111765    constrained

Stress-tensor-Voigt (kbar):        0.31        1.51        0.15       -0.25        0.00        0.00
(Free)E + p*V (eV/cell)   -12740.5826
Target enthalpy (eV/cell)   -12739.8085

siesta: Stress tensor (static) (eV/Ang**3):
         0.000194   -0.000157    0.000000
        -0.000157    0.000941    0.000000
         0.000000    0.000000    0.000091

siesta: Pressure (static):         -0.65515671  kBar

siesta: Stress tensor (total) (eV/Ang**3):
         0.000194   -0.000157    0.000000
        -0.000157    0.000941    0.000000
         0.000000    0.000000    0.000091

siesta: Pressure (total):         -0.65515671  kBar

siesta: Temp_ion =       0.000 K

* Maximum dynamic memory allocated =   204 MB

siesta: Program's energy decomposition (eV):
siesta: Ebs     =     -4185.910977
siesta: Eions   =     19849.732669
siesta: Ena     =      4064.210604
siesta: Ekin    =      8579.931485
siesta: Enl     =     -1058.996799
siesta: DEna    =      -247.312408
siesta: DUscf   =        22.421299
siesta: DUext   =         0.000000
siesta: Exc     =     -4250.292653
siesta: eta*DQ  =         0.000000
siesta: Emadel  =         0.000000
siesta: Emeta   =         0.000000
siesta: Emolmec =         0.000000
siesta: Ekinion =         0.000000
siesta: Eharris =    -12739.773087
siesta: Etot    =    -12739.771141
siesta: FreeEng =    -12739.808477

siesta: Final energy (eV):
siesta:  Band Struct. =   -4185.910977
siesta:       Kinetic =    8579.931485
siesta:       Hartree =   24798.412056
siesta:    Ext. field =       0.000000
siesta:   Exch.-corr. =   -4250.292653
siesta:  Ion-electron =  -57573.967619
siesta:       Ion-ion =   15706.145590
siesta:       Ekinion =       0.000000
siesta:         Total =  -12739.771141

siesta: Atomic forces (eV/Ang):
siesta:      1    0.209834    0.165355    0.000000
siesta:      2   -0.263127    0.078175    0.000000
siesta:      3    0.058379   -0.165529    0.000000
siesta:      4    1.035431   -0.260398    0.000000
siesta:      5    0.552046   -0.342602    0.000000
siesta:      6   -0.578463    0.416177    0.000000
siesta:      7    0.091819    0.256555    0.000000
siesta:      8    0.329351   -0.172491    0.000000
siesta:      9   -0.285541    0.990642    0.000000
siesta:     10    0.312323   -1.111765    0.000000
siesta:     11    0.553542    0.634107    0.000000
siesta:     12    0.361922   -0.834020    0.000000
siesta:     13    0.139931   -0.164247    0.000000
siesta:     14   -0.187975   -0.337688    0.000000
siesta:     15   -0.254962   -0.575060    0.000000
siesta:     16    0.286196   -0.192631    0.000000
siesta:     17   -0.016490    0.210928    0.000000
siesta:     18   -0.154852   -0.162421    0.000000
siesta:     19   -0.429765   -0.599891    0.000000
siesta:     20    0.508841   -0.067150    0.000000
siesta:     21   -0.151705    0.198061    0.000000
siesta:     22   -0.326040    0.018257    0.000000
siesta:     23    0.661033    0.400483    0.000000
siesta:     24   -0.424876   -0.300108    0.000000
siesta:     25    0.049483    0.299030    0.000000
siesta:     26   -0.189057    0.234443    0.000000
siesta:     27    0.327884   -0.096807    0.000000
siesta:     28    0.006266    0.109551    0.000000
siesta:     29   -0.399782   -0.036135    0.000000
siesta:     30    0.444273    0.260499    0.000000
siesta:     31   -0.397014    0.021246    0.000000
siesta:     32    0.249244   -0.122353    0.000000
siesta:     33   -0.073717   -0.051292    0.000000
siesta:     34   -0.097523    0.034766    0.000000
siesta:     35   -0.155020   -0.367796    0.000000
siesta:     36    0.384859    0.077921    0.000000
siesta:     37    0.163817   -0.077954    0.000000
siesta:     38   -0.222549    0.313003    0.000000
siesta:     39    0.477787    0.049775    0.000000
siesta:     40    0.005707    0.024175    0.000000
siesta:     41   -0.363172   -0.022593    0.000000
siesta:     42    0.174330    0.381463    0.000000
siesta:     43   -0.272797   -0.323413    0.000000
siesta:     44   -0.160675   -0.393464    0.000000
siesta:     45    0.539014    0.192954    0.000000
siesta:     46   -0.783062   -0.025794    0.000000
siesta:     47    0.190576    0.413426    0.000000
siesta:     48    0.723601   -0.730524    0.000000
siesta:     49   -0.817276    0.759858    0.000000
siesta:     50   -0.185940   -0.324899    0.000000
siesta:     51   -0.105446   -0.103715    0.000000
siesta:     52    0.422258    0.175467    0.000000
siesta:     53   -0.651843   -0.017521    0.000000
siesta:     54   -0.658641   -0.182892    0.000000
siesta:     55    0.206910   -0.199183    0.000000
siesta:     56   -0.116039   -0.293877    0.000000
siesta:     57   -0.615481   -0.075926    0.000000
siesta:     58    0.314529   -0.096293    0.000000
siesta:     59    0.079055    0.387136    0.000000
siesta:     60    0.206968    0.398031    0.000000
siesta:     61    0.293610    0.533632    0.000000
siesta:     62   -0.783528   -0.188965    0.000000
siesta:     63    0.499892    0.451616    0.000000
siesta:     64    0.193644    0.120998    0.000000
siesta:     65   -0.025310    0.857359    0.000000
siesta:     66    0.005889    0.160801    0.000000
siesta:     67   -0.319510   -0.651494    0.000000
siesta:     68   -0.015264   -0.056930    0.000000
siesta:     69    0.194921   -0.152744    0.000000
siesta:     70   -0.276912    0.149227    0.000000
siesta:     71   -0.269545    0.009182    0.000000
siesta:     72   -0.027754   -0.199805    0.000000
siesta: ----------------------------------------
siesta:    Tot    0.198514   -0.294067    0.000000

siesta: Stress tensor (static) (eV/Ang**3):
siesta:     0.000194   -0.000157    0.000000
siesta:    -0.000157    0.000941    0.000000
siesta:     0.000000    0.000000    0.000091

siesta: Cell volume =       1893.226895 Ang**3

siesta: Pressure (static):
siesta:                Solid            Molecule  Units
siesta:          -0.00000445         -0.00006310  Ry/Bohr**3
siesta:          -0.00040891         -0.00579408  eV/Ang**3
siesta:          -0.65515671         -9.28323877  kBar
(Free)E+ p_basis*V_orbitals  =      -12710.357531
(Free)Eharris+ p_basis*V_orbitals  =      -12710.365261

siesta: Electric dipole (a.u.)  =    0.000000    0.000000    0.000000
siesta: Electric dipole (Debye) =    0.000000    0.000000    0.000000

* Maximum dynamic memory allocated : Node    0 =   204 MB
* Maximum dynamic memory allocated : Node    1 =    74 MB
* Maximum dynamic memory allocated : Node    2 =    76 MB
* Maximum dynamic memory allocated : Node    3 =   193 MB
* Maximum dynamic memory allocated : Node    4 =   203 MB
* Maximum dynamic memory allocated : Node    5 =    74 MB
* Maximum dynamic memory allocated : Node    6 =    76 MB
* Maximum dynamic memory allocated : Node    7 =   188 MB

* Maximum memory occured during matrixMtoO                    

timer: CPU execution times:
timer:  Routine       Calls   Time/call    Tot.time        %
timer:  siesta            1  197632.303  197632.303   100.00
timer:  Setup             1       3.053       3.053     0.00
timer:  bands             1       0.010       0.010     0.00
timer:  writewave         1       0.018       0.018     0.00
timer:  KSV_init          1       0.003       0.003     0.00
timer:  IterMD            1  197621.097  197621.097    99.99
timer:  hsparse           1       0.257       0.257     0.00
timer:  overlap           1       6.333       6.333     0.00
timer:  IterSCF          30    6581.790  197453.709    99.91
timer:  kinefsm           2       3.299       6.598     0.00
timer:  nlefsm            2      18.956      37.911     0.02
timer:  DHSCF            31      88.363    2739.251     1.39
timer:  DHSCF1            1       0.757       0.757     0.00
timer:  DHSCF2            1      32.909      32.909     0.02
timer:  REORD           250       0.010       2.450     0.00
timer:  POISON           32       2.245      71.824     0.04
timer:  DHSCF3           31      86.225    2672.988     1.35
timer:  rhoofd           31      16.275     504.533     0.26
timer:  cellXC           31       3.466     107.446     0.05
timer:  vmat             31      43.776    1357.055     0.69
timer:  MolMec            2       0.000       0.000     0.00
timer:  diagon           30    6492.099  194762.958    98.55
timer:  c-eigval      10560       6.692   70670.456    35.76
timer:  c-buildHS     10560       0.118    1241.170     0.63
timer:  cdiag         21120       6.875  145192.823    73.47
timer:  cdiag1        21120       0.428    9029.308     4.57
timer:  cdiag2        21120       1.911   40359.187    20.42
timer:  cdiag3        21120       3.957   83578.604    42.29
timer:  cdiag4        21120       0.204    4310.630     2.18
timer:  c-eigvec      10560       7.247   76525.089    38.72
timer:  c-buildD      10560       4.496   47478.781    24.02
timer:  DHSCF4            1      30.947      30.947     0.02
timer:  dfscf             1      29.104      29.104     0.01
timer:  overfsm           1       0.383       0.383     0.00
timer:  optical           1       7.127       7.127     0.00
  

elaps: ELAPSED times:
elaps:  Routine       Calls   Time/call    Tot.time        %
elaps:  siesta            1   24732.122   24732.122   100.00
elaps:  Setup             1       0.381       0.381     0.00
elaps:  bands             1       0.001       0.001     0.00
elaps:  writewave         1       0.002       0.002     0.00
elaps:  KSV_init          1       0.000       0.000     0.00
elaps:  IterMD            1   24730.721   24730.721    99.99
elaps:  hsparse           1       0.032       0.032     0.00
elaps:  overlap           1       0.524       0.524     0.00
elaps:  IterSCF          30     823.659   24709.781    99.91
elaps:  kinefsm           2       0.275       0.550     0.00
elaps:  nlefsm            2       2.524       5.048     0.02
elaps:  DHSCF            31      11.157     345.879     1.40
elaps:  DHSCF1            1       0.097       0.097     0.00
elaps:  DHSCF2            1       4.118       4.118     0.02
elaps:  REORD           250       0.001       0.334     0.00
elaps:  POISON           32       0.280       8.965     0.04
elaps:  DHSCF3           31      10.787     334.409     1.35
elaps:  rhoofd           31       3.512     108.875     0.44
elaps:  cellXC           31       0.433      13.423     0.05
elaps:  vmat             31       5.477     169.772     0.69
elaps:  MolMec            2       0.000       0.000     0.00
elaps:  diagon           30     812.461   24373.825    98.55
elaps:  c-eigval      10560       0.837    8841.926    35.75
elaps:  c-buildHS     10560       0.016     170.457     0.69
elaps:  cdiag         21120       0.847   17892.351    72.34
elaps:  cdiag1        21120       0.053    1120.135     4.53
elaps:  cdiag2        21120       0.239    5049.627    20.42
elaps:  cdiag3        21120       0.496   10471.789    42.34
elaps:  cdiag4        21120       0.026     551.383     2.23
elaps:  c-eigvec      10560       0.884    9339.642    37.76
elaps:  c-buildD      10560       0.585    6179.191    24.98
elaps:  DHSCF4            1       7.032       7.032     0.03
elaps:  dfscf             1       6.658       6.658     0.03
elaps:  overfsm           1       0.048       0.048     0.00
elaps:  optical           1       0.000       0.000     0.00
  
>> End of run:  29-NOV-2015  13:30:10
