Siesta Version:                                        siesta-3.2-pl-3
Architecture  : x86_64-unknown-linux-gnu--unknown
Compiler flags: mpiifort -g -O2 -fPIC -xSSE4.1 -fp-model source -shared-intel 
PARALLEL version

* Running on    8 nodes in parallel
>> Start of run:  26-NOV-2015  17:22:31

                           ***********************       
                           *  WELCOME TO SIESTA  *       
                           ***********************       

reinit: Reading from standard input
************************** Dump of input data file ****************************
#(1) General system descriptors
SystemName            GRP_doping    # Descriptive name of the system
SystemLabel           GRP_doping    # Short name for naming files
%include STRUCT.fdf
%include KPT.fdf
%include BASIS.fdf
#%include TS.fdf # for transiesta calculation
#(4) DFT, Grid, SCF
XC.functional         GGA           # LDA or GGA (default = LDA)
XC.authors            PBE           # CA (Ceperley-Aldr) = PZ
                                    #    (Perdew-Zunger) - LDA - Default
                                    # PW92 (Perdew-Wang-92) - LDA
                                    # PBE (Perdew-Burke-Ernzerhof) - GGA
MeshCutoff            200.000000    Ry      # Default: 50.0 Ry ~ 0.444 Bohr
                                    #         100.0 Ry ~ 0.314 Bohr
MaxSCFIterations      500           # Default: 50
DM.MixingWeight       0.05          # Default: 0.25
DM.NumberPulay        10            # Default: 0
DM.PulayOnFile        F             # SystemLabel.P1, SystemLabel.P2
DM.Tolerance          1.d-4         # Default: 1.d-4
DM.UseSaveDM          .true.        # because of the bug
SCFMustConverge       .true.
NeglNonOverlapInt     F             # Default: F
#(5) Eigenvalue problem: order-N or diagonalization
SolutionMethod        Diagon        # or Transiesta
ElectronicTemperature 300.0 K       # Default: 300.0 K
#(6) Molecular dynamics and relaxations
#MD.TypeOfRun          CG            # Type of dynamics:
#MD.VariableCell       F
#MD.NumCGsteps         0           # 0 for single-point / 100 for gopt
#MD.MaxCGDispl         0.2 Bohr      # Default: 0.2 Bohr
#MD.MaxForceTol        0.02 eV/Ang   # Default: 0.04 eV/Ang
#MD.MaxStressTol       1.0 GPa       # Default: 1.0 GPa
# Geometry Constraints
#%block GeometryConstraints
#	position from 1 to 44
#%endblock GeometryConstraints
************************** End of input data file *****************************

reinit: -----------------------------------------------------------------------
reinit: System Name: GRP_doping
reinit: -----------------------------------------------------------------------
reinit: System Label: GRP_doping                                                  
reinit: -----------------------------------------------------------------------

initatom: Reading input for the pseudopotentials and atomic orbitals ----------
 Species number:            1  Label: N Atomic number:           7
 Species number:            2  Label: C Atomic number:           6
Ground state valence configuration:   2s02  2p03
Reading pseudopotential information in formatted form from N.psf

Valence configuration for pseudopotential generation:
2s( 2.00) rc: 1.48
2p( 3.00) rc: 1.48
3d( 0.00) rc: 1.48
4f( 0.00) rc: 1.48
Ground state valence configuration:   2s02  2p02
Reading pseudopotential information in formatted form from C.psf

Valence configuration for pseudopotential generation:
2s( 2.00) rc: 1.54
2p( 2.00) rc: 1.54
3d( 0.00) rc: 1.54
4f( 0.00) rc: 1.54
For N, standard SIESTA heuristics set lmxkb to 3
 (one more than the basis l, including polarization orbitals).
Use PS.lmax or PS.KBprojectors blocks to override.
For C, standard SIESTA heuristics set lmxkb to 3
 (one more than the basis l, including polarization orbitals).
Use PS.lmax or PS.KBprojectors blocks to override.

<basis_specs>
===============================================================================
N                    Z=   7    Mass=  14.010        Charge= 0.17977+309
Lmxo=1 Lmxkb= 3    BasisType=split      Semic=F
L=0  Nsemic=0  Cnfigmx=2
          n=1  nzeta=2  polorb=0
            splnorm:   0.15000    
               vcte:    0.0000    
               rinn:    0.0000    
                rcs:    0.0000      0.0000    
            lambdas:    1.0000      1.0000    
L=1  Nsemic=0  Cnfigmx=2
          n=1  nzeta=2  polorb=1
            splnorm:   0.15000    
               vcte:    0.0000    
               rinn:    0.0000    
                rcs:    0.0000      0.0000    
            lambdas:    1.0000      1.0000    
-------------------------------------------------------------------------------
L=0  Nkbl=1  erefs: 0.17977+309
L=1  Nkbl=1  erefs: 0.17977+309
L=2  Nkbl=1  erefs: 0.17977+309
L=3  Nkbl=1  erefs: 0.17977+309
===============================================================================
</basis_specs>

atom: Called for N                     (Z =   7)

read_vps: Pseudopotential generation method:
read_vps: ATM3      Troullier-Martins                       
Total valence charge:    5.00000

read_vps: Pseudopotential includes a core correction:
read_vps: Pseudo-core for xc-correction

xc_check: Exchange-correlation functional:
xc_check: GGA Perdew, Burke & Ernzerhof 1996
V l=0 = -2*Zval/r beyond r=  1.4606
V l=1 = -2*Zval/r beyond r=  1.4606
V l=2 = -2*Zval/r beyond r=  1.4606
V l=3 = -2*Zval/r beyond r=  1.4606
All V_l potentials equal beyond r=  1.4606
This should be close to max(r_c) in ps generation
All pots = -2*Zval/r beyond r=  1.4606

VLOCAL1: 99.0% of the norm of Vloc inside     20.347 Ry
VLOCAL1: 99.9% of the norm of Vloc inside     46.372 Ry
atom: Maximum radius for 4*pi*r*r*local-pseudopot. charge    1.76189
atom: Maximum radius for r*vlocal+2*Zval:    1.53550
GHOST: No ghost state for L =  0
GHOST: No ghost state for L =  1
GHOST: No ghost state for L =  2
GHOST: No ghost state for L =  3

KBgen: Kleinman-Bylander projectors: 
   l= 0   rc=  1.634559   el= -1.363963   Ekb=  5.296955   kbcos=  0.335621
   l= 1   rc=  1.614250   el= -0.521451   Ekb= -5.259161   kbcos= -0.433408
   l= 2   rc=  1.718383   el=  0.001991   Ekb= -1.271464   kbcos= -0.007566
   l= 3   rc=  1.761893   el=  0.003093   Ekb= -0.494769   kbcos= -0.001015

KBgen: Total number of  Kleinman-Bylander projectors:   16
atom: -------------------------------------------------------------------------

atom: SANKEY-TYPE ORBITALS:
atom: Selected multiple-zeta basis: split     

SPLIT: Orbitals with angular momentum L= 0

SPLIT: Basis orbitals for state 2s

SPLIT: PAO cut-off radius determined from an
SPLIT: energy shift=  0.007350 Ry

   izeta = 1
                 lambda =    1.000000
                     rc =    4.071465
                 energy =   -1.356470
                kinetic =    1.176977
    potential(screened) =   -2.533447
       potential(ionic) =   -8.057990

   izeta = 2
                 rmatch =    2.905100
              splitnorm =    0.150000
                 energy =   -1.158343
                kinetic =    1.813009
    potential(screened) =   -2.971352
       potential(ionic) =   -8.901931

SPLIT: Orbitals with angular momentum L= 1

SPLIT: Basis orbitals for state 2p

SPLIT: PAO cut-off radius determined from an
SPLIT: energy shift=  0.007350 Ry

   izeta = 1
                 lambda =    1.000000
                     rc =    4.972977
                 energy =   -0.513884
                kinetic =    3.441732
    potential(screened) =   -3.955616
       potential(ionic) =   -9.287901

   izeta = 2
                 rmatch =    3.054066
              splitnorm =    0.150000
                 energy =   -0.318226
                kinetic =    5.125348
    potential(screened) =   -5.443573
       potential(ionic) =  -11.380999

POLgen: Perturbative polarization orbital with L=  2

POLgen: Polarization orbital for state 2p

   izeta = 1
                     rc =    4.972977
                 energy =    1.607437
                kinetic =    3.268125
    potential(screened) =   -1.660688
       potential(ionic) =   -5.973652
atom: Total number of Sankey-type orbitals: 13

atm_pop: Valence configuration (for local Pseudopot. screening):
 2s( 2.00)                                                            
 2p( 3.00)                                                            
Vna: chval, zval:    5.00000   5.00000

Vna:  Cut-off radius for the neutral-atom potential:   4.972977
comcore: Pseudo-core radius Rcore=  1.554824

atom: _________________________________________________________________________

<basis_specs>
===============================================================================
C                    Z=   6    Mass=  12.010        Charge= 0.17977+309
Lmxo=1 Lmxkb= 3    BasisType=split      Semic=F
L=0  Nsemic=0  Cnfigmx=2
          n=1  nzeta=2  polorb=0
            splnorm:   0.15000    
               vcte:    0.0000    
               rinn:    0.0000    
                rcs:    0.0000      0.0000    
            lambdas:    1.0000      1.0000    
L=1  Nsemic=0  Cnfigmx=2
          n=1  nzeta=2  polorb=1
            splnorm:   0.15000    
               vcte:    0.0000    
               rinn:    0.0000    
                rcs:    0.0000      0.0000    
            lambdas:    1.0000      1.0000    
-------------------------------------------------------------------------------
L=0  Nkbl=1  erefs: 0.17977+309
L=1  Nkbl=1  erefs: 0.17977+309
L=2  Nkbl=1  erefs: 0.17977+309
L=3  Nkbl=1  erefs: 0.17977+309
===============================================================================
</basis_specs>

atom: Called for C                     (Z =   6)

read_vps: Pseudopotential generation method:
read_vps: ATM3      Troullier-Martins                       
Total valence charge:    4.00000

read_vps: Pseudopotential includes a core correction:
read_vps: Pseudo-core for xc-correction

xc_check: Exchange-correlation functional:
xc_check: GGA Perdew, Burke & Ernzerhof 1996
V l=0 = -2*Zval/r beyond r=  1.5227
V l=1 = -2*Zval/r beyond r=  1.5227
V l=2 = -2*Zval/r beyond r=  1.5227
V l=3 = -2*Zval/r beyond r=  1.5038
All V_l potentials equal beyond r=  1.5227
This should be close to max(r_c) in ps generation
All pots = -2*Zval/r beyond r=  1.5227

VLOCAL1: 99.0% of the norm of Vloc inside     18.722 Ry
VLOCAL1: 99.9% of the norm of Vloc inside     42.668 Ry
atom: Maximum radius for 4*pi*r*r*local-pseudopot. charge    1.83678
atom: Maximum radius for r*vlocal+2*Zval:    1.58088
GHOST: No ghost state for L =  0
GHOST: No ghost state for L =  1
GHOST: No ghost state for L =  2
GHOST: No ghost state for L =  3

KBgen: Kleinman-Bylander projectors: 
   l= 0   rc=  1.704034   el= -1.009801   Ekb=  5.335044   kbcos=  0.316824
   l= 1   rc=  1.704034   el= -0.388707   Ekb= -3.785862   kbcos= -0.366464
   l= 2   rc=  1.791422   el=  0.001971   Ekb= -0.970471   kbcos= -0.009212
   l= 3   rc=  1.859892   el=  0.003065   Ekb= -0.399525   kbcos= -0.001223

KBgen: Total number of  Kleinman-Bylander projectors:   16
atom: -------------------------------------------------------------------------

atom: SANKEY-TYPE ORBITALS:
atom: Selected multiple-zeta basis: split     

SPLIT: Orbitals with angular momentum L= 0

SPLIT: Basis orbitals for state 2s

SPLIT: PAO cut-off radius determined from an
SPLIT: energy shift=  0.007350 Ry

   izeta = 1
                 lambda =    1.000000
                     rc =    4.632753
                 energy =   -1.002270
                kinetic =    0.855760
    potential(screened) =   -1.858031
       potential(ionic) =   -5.417575

   izeta = 2
                 rmatch =    3.431921
              splitnorm =    0.150000
                 energy =   -0.867111
                kinetic =    1.300804
    potential(screened) =   -2.167915
       potential(ionic) =   -5.962684

SPLIT: Orbitals with angular momentum L= 1

SPLIT: Basis orbitals for state 2p

SPLIT: PAO cut-off radius determined from an
SPLIT: energy shift=  0.007350 Ry

   izeta = 1
                 lambda =    1.000000
                     rc =    5.658549
                 energy =   -0.381140
                kinetic =    2.399701
    potential(screened) =   -2.780841
       potential(ionic) =   -6.206085

   izeta = 2
                 rmatch =    3.653288
              splitnorm =    0.150000
                 energy =   -0.249149
                kinetic =    3.542762
    potential(screened) =   -3.791911
       potential(ionic) =   -7.581078

POLgen: Perturbative polarization orbital with L=  2

POLgen: Polarization orbital for state 2p

   izeta = 1
                     rc =    5.658549
                 energy =    1.109913
                kinetic =    2.304789
    potential(screened) =   -1.194876
       potential(ionic) =   -4.013592
atom: Total number of Sankey-type orbitals: 13

atm_pop: Valence configuration (for local Pseudopot. screening):
 2s( 2.00)                                                            
 2p( 2.00)                                                            
Vna: chval, zval:    4.00000   4.00000

Vna:  Cut-off radius for the neutral-atom potential:   5.658549
comcore: Pseudo-core radius Rcore=  1.791422

atom: _________________________________________________________________________

prinput: Basis input ----------------------------------------------------------

PAO.BasisType split     

%block ChemicalSpeciesLabel
    1    7 N                       # Species index, atomic number, species label
    2    6 C                       # Species index, atomic number, species label
%endblock ChemicalSpeciesLabel

%block PAO.Basis                 # Define Basis set
N                     2                    # Species label, number of l-shells
 n=2   0   2                         # n, l, Nzeta 
   4.071      2.905   
   1.000      1.000   
 n=2   1   2 P   1                   # n, l, Nzeta, Polarization, NzetaPol
   4.973      3.054   
   1.000      1.000   
C                     2                    # Species label, number of l-shells
 n=2   0   2                         # n, l, Nzeta 
   4.633      3.432   
   1.000      1.000   
 n=2   1   2 P   1                   # n, l, Nzeta, Polarization, NzetaPol
   5.659      3.653   
   1.000      1.000   
%endblock PAO.Basis

prinput: ----------------------------------------------------------------------

coor:   Atomic-coordinates input format  =     Cartesian coordinates
coor:                                          (in Angstroms)

siesta: Atomic coordinates (Bohr) and species
siesta:      2.23549   1.32088   0.00000  1        1
siesta:      6.89163   1.32088   0.00000  1        2
siesta:      4.56357   2.66443   0.00000  2        3
siesta:     32.50244  21.48363   0.00000  2        4
siesta:     34.83052  22.82718   0.00000  2        5
siesta:     34.83048  17.45108   0.00000  2        6
siesta:     37.15856  18.79463   0.00000  2        7
siesta:     32.50239  13.41853   0.00000  2        8
siesta:     34.83046  14.76208   0.00000  2        9
siesta:     30.17428   9.38598   0.00000  2       10
siesta:     32.50237  10.72953   0.00000  2       11
siesta:     27.84618   5.35343   0.00000  2       12
siesta:     30.17426   6.69698   0.00000  2       13
siesta:     27.84630  21.48363   0.00000  2       14
siesta:     30.17438  22.82718   0.00000  2       15
siesta:      9.21971   2.66443   0.00000  2       16
siesta:     11.54777   1.32088   0.00000  2       17
siesta:     13.87585   2.66443   0.00000  2       18
siesta:     16.20391   1.32088   0.00000  2       19
siesta:     18.53199   2.66443   0.00000  2       20
siesta:     20.86194   1.32088   0.00000  2       21
siesta:     23.19002   2.66443   0.00000  2       22
siesta:     25.51808   1.32088   0.00000  2       23
siesta:     27.84616   2.66443   0.00000  2       24
siesta:      4.56359   5.35343   0.00000  2       25
siesta:      6.89167   6.69698   0.00000  2       26
siesta:      9.21973   5.35343   0.00000  2       27
siesta:     11.54781   6.69698   0.00000  2       28
siesta:     13.87587   5.35343   0.00000  2       29
siesta:     16.20395   6.69698   0.00000  2       30
siesta:     18.53390   5.35343   0.00000  2       31
siesta:     20.86198   6.69698   0.00000  2       32
siesta:     23.19004   5.35343   0.00000  2       33
siesta:     25.51812   6.69698   0.00000  2       34
siesta:      6.89169   9.38598   0.00000  2       35
siesta:      9.21977  10.72953   0.00000  2       36
siesta:     11.54783   9.38598   0.00000  2       37
siesta:     13.87591  10.72953   0.00000  2       38
siesta:     16.20397   9.38598   0.00000  2       39
siesta:     18.53205  10.72953   0.00000  2       40
siesta:     20.86200   9.38598   0.00000  2       41
siesta:     23.19008  10.72953   0.00000  2       42
siesta:      9.21979  13.41853   0.00000  2       43
siesta:     11.54787  14.76208   0.00000  2       44
siesta:     13.87593  13.41853   0.00000  2       45
siesta:     16.20401  14.76208   0.00000  2       46
siesta:     18.53396  13.41853   0.00000  2       47
siesta:     20.86204  14.76208   0.00000  2       48
siesta:     11.54789  17.45108   0.00000  2       49
siesta:     13.87597  18.79463   0.00000  2       50
siesta:     16.20403  17.45108   0.00000  2       51
siesta:     18.53211  18.79463   0.00000  2       52
siesta:     13.87599  21.48363   0.00000  2       53
siesta:     16.20407  22.82718   0.00000  2       54
siesta:     18.53402  21.48363   0.00000  2       55
siesta:     20.86210  22.82718   0.00000  2       56
siesta:     25.51814   9.38598   0.00000  2       57
siesta:     27.84622  10.72953   0.00000  2       58
siesta:     23.19010  13.41853   0.00000  2       59
siesta:     25.51818  14.76208   0.00000  2       60
siesta:     20.86206  17.45108   0.00000  2       61
siesta:     23.19014  18.79463   0.00000  2       62
siesta:     27.84624  13.41853   0.00000  2       63
siesta:     30.17432  14.76208   0.00000  2       64
siesta:     25.51820  17.45108   0.00000  2       65
siesta:     27.84628  18.79463   0.00000  2       66
siesta:     23.19016  21.48363   0.00000  2       67
siesta:     25.51824  22.82718   0.00000  2       68
siesta:     30.17434  17.45108   0.00000  2       69
siesta:     32.50243  18.79463   0.00000  2       70
siesta:     37.16048  21.48363   0.00000  2       71
siesta:     39.48855  22.82718   0.00000  2       72

siesta: System type = slab      

initatomlists: Number of atoms, orbitals, and projectors:     72   936  1152

siesta: ******************** Simulation parameters ****************************
siesta:
siesta: The following are some of the parameters of the simulation.
siesta: A complete list of the parameters used, including default values,
siesta: can be found in file out.fdf
siesta:
redata: Non-Collinear-spin run           =     F
redata: SpinPolarized (Up/Down) run      =     F
redata: Number of spin components        =     1
redata: Long output                      =     F
redata: Number of Atomic Species         =        2
redata: Charge density info will appear in .RHO file
redata: Write Mulliken Pop.              =     NO
redata: Mesh Cutoff                      =   200.0000  Ry
redata: Net charge of the system         =     0.0000 |e|
redata: Max. number of SCF Iter          =      500
redata: SCF convergence failure will abort job
redata: Performing Pulay mixing using    =    10 iterations
redata: Mix DM in first SCF step ?       =     F
redata: Write Pulay info on disk?        =     F
redata: Discard 1st Pulay DM after  kick =     F
redata: New DM Mixing Weight             =     0.0500
redata: New DM Occupancy tolerance       = 0.000000000001
redata: No kicks to SCF
redata: DM Mixing Weight for Kicks       =     0.5000
redata: DM Tolerance for SCF             =     0.000100
redata: Require Energy convergence for SCF =     F
redata: DM Energy tolerance for SCF      =     0.000100 eV
redata: Require Harris convergence for SCF =     F
redata: DM Harris energy tolerance for SCF =     0.000100 eV
redata: Using Saved Data (generic)   =     F
redata: Use continuation files for DM    =     T
redata: Neglect nonoverlap interactions  =     F
redata: Method of Calculation            =     Diagonalization
redata: Divide and Conquer               =     T
redata: Electronic Temperature           =     0.0019  Ry
redata: Fix the spin of the system       =     F
redata: Dynamics option                  =     Verlet MD run
redata: Initial MD time step             =        1
redata:   Final MD time step             =        1
redata: Length of MD time step           =     1.0000  fs
redata: Initial Temperature of MD run    =     0.0000  K
redata: Perform a MD quench              =     F
redata: ***********************************************************************
Total number of electrons:   290.000000
Total ionic charge:   290.000000

* ProcessorY, Blocksize:    2  24

k-point displ. along   1 input, could be:     0.00    0.50
k-point displ. along   2 input, could be:     0.00    0.50
 Kpoints in:          364 . Kpoints trimmed:          352

siesta: k-grid: Number of k-points =   352
siesta: k-grid: Cutoff (effective) =     5.000 Ang
siesta: k-grid: Supercell and displacements
siesta: k-grid:   26   0   0      0.000
siesta: k-grid:    0  26   0      0.000
siesta: k-grid:    0   0   1      0.000
Naive supercell factors:     2    2    2

superc: Internal auxiliary supercell:     2 x     2 x     2  =       8
superc: Number of atoms, orbitals, and projectors:    576   7488   9216

* Maximum dynamic memory allocated =     6 MB

siesta:                 ==============================
                            Begin MD step =      1
                        ==============================

superc: Internal auxiliary supercell:     2 x     2 x     2  =       8
superc: Number of atoms, orbitals, and projectors:    576   7488   9216

outcell: Unit cell vectors (Ang):
       14.785000    0.000000    0.000000
        7.392500   12.804185    0.000000
        0.000000    0.000000   10.000000

outcell: Cell vector modules (Ang)   :   14.785000   14.785000   10.000000
outcell: Cell angles (23,13,12) (deg):     90.0000     90.0000     60.0000
outcell: Cell volume (Ang**3)        :   1893.0988
New_DM. Step:     1
Initializing Density Matrix...

iodm: Reading Density Matrix from files
 Read DM has different structure. Fixing...

InitMesh: MESH =   120 x   120 x    90 =     1296000
InitMesh: Mesh cutoff (required, used) =   200.000   223.865 Ry

* Maximum dynamic memory allocated =   193 MB

stepf: Fermi-Dirac step function

siesta: Program's energy decomposition (eV):
siesta: Ebs     =     -8981.373065
siesta: Eions   =     18724.504759
siesta: Ena     =      3995.600237
siesta: Ekin    =      8297.379538
siesta: Enl     =      -925.718275
siesta: DEna    =      -333.604002
siesta: DUscf   =       693.295587
siesta: DUext   =         0.000000
siesta: Exc     =     -4116.154838
siesta: eta*DQ  =         0.000000
siesta: Emadel  =         0.000000
siesta: Emeta   =         0.000000
siesta: Emolmec =         0.000000
siesta: Ekinion =         0.000000
siesta: Eharris =    -17542.188058
siesta: Etot    =    -11113.706513
siesta: FreeEng =    -11113.706513

siesta: iscf   Eharris(eV)      E_KS(eV)   FreeEng(eV)   dDmax  Ef(eV)
siesta:    1   -17542.1881   -11113.7065   -11113.7065 14.0159-11.3160
timer: Routine,Calls,Time,% = IterSCF        1    6612.034  99.82
elaps: Routine,Calls,Wall,% = IterSCF        1     827.487  99.82
siesta:    2  -106955.5457    22488.1053    22488.1037161.8919********
siesta:    3   -13009.2733   -11355.4000   -11355.4571  4.4325 -4.3844
siesta:    4   -12129.4192   -11398.9425   -11399.0149  1.2768 -4.8082
siesta:    5   -12059.6270   -11430.2940   -11430.3212  1.1600 -4.8380
siesta:    6   -12003.0833   -11476.6607   -11476.6860  0.9873 -4.7248
siesta:    7   -11972.4549   -11523.2641   -11523.2684  0.8802 -4.7263
siesta:    8   -11931.5564   -11663.5247   -11663.5288  0.5772 -4.4450
siesta:    9   -11928.8467   -11738.7858   -11738.8075  0.4529 -4.2930
siesta:   10   -11925.2272   -11869.2788   -11869.2931  0.2050 -4.0275
siesta:   11   -11923.8302   -11943.6518   -11943.6732  0.2138 -3.9216
siesta:   12   -11922.8828   -11941.5752   -11941.5971  0.1761 -3.8637
siesta:   13   -11922.0143   -11934.4799   -11934.5021  0.1165 -3.8112
siesta:   14   -11922.0154   -11919.0430   -11919.0629  0.0714 -3.8690
siesta:   15   -11921.6043   -11922.4777   -11922.4985  0.0513 -3.9801
siesta:   16   -11921.4292   -11922.6020   -11922.6233  0.0149 -3.9394
siesta:   17   -11921.4118   -11922.0718   -11922.0943  0.0143 -3.9175
siesta:   18   -11921.4040   -11921.2602   -11921.2826  0.0080 -3.9142
siesta:   19   -11921.4067   -11921.0754   -11921.0977  0.0071 -3.9113
siesta:   20   -11921.4019   -11921.2434   -11921.2656  0.0021 -3.9088
siesta:   21   -11921.4017   -11921.3521   -11921.3743  0.0015 -3.9094
siesta:   22   -11921.4011   -11921.4306   -11921.4529  0.0006 -3.9101
siesta:   23   -11921.4010   -11921.3473   -11921.3696  0.0006 -3.9101
siesta:   24   -11921.4010   -11921.3467   -11921.3691  0.0004 -3.9099
siesta:   25   -11921.4010   -11921.3905   -11921.4128  0.0004 -3.9094
siesta:   26   -11921.4010   -11921.3707   -11921.3930  0.0003 -3.9101
siesta:   27   -11921.4010   -11921.3711   -11921.3934  0.0002 -3.9102
siesta:   28   -11921.4010   -11921.4017   -11921.4240  0.0001 -3.9101

siesta: E_KS(eV) =           -11921.4027

siesta: E_KS - E_eggbox =    -11921.4027

siesta: Atomic forces (eV/Ang):
----------------------------------------
   Tot    0.192840   -0.323935    0.000000
----------------------------------------
   Max    0.939222
   Res    0.202822    sqrt( Sum f_i^2 / 3N )
----------------------------------------
   Max    0.939222    constrained

Stress-tensor-Voigt (kbar):      -28.18      -28.18        0.04       -0.40        0.00        0.00
(Free)E + p*V (eV/cell)   -11899.2460
Target enthalpy (eV/cell)   -11921.4250

siesta: Stress tensor (static) (eV/Ang**3):
        -0.017586   -0.000248    0.000000
        -0.000248   -0.017585    0.000000
         0.000000    0.000000    0.000024

siesta: Pressure (static):         18.77086678  kBar

siesta: Stress tensor (total) (eV/Ang**3):
        -0.017586   -0.000248    0.000000
        -0.000248   -0.017585    0.000000
         0.000000    0.000000    0.000024

siesta: Pressure (total):         18.77086678  kBar

siesta: Temp_ion =       0.000 K

* Maximum dynamic memory allocated =   208 MB

siesta: Program's energy decomposition (eV):
siesta: Ebs     =     -3991.021799
siesta: Eions   =     18724.504759
siesta: Ena     =      3995.600237
siesta: Ekin    =      7999.182503
siesta: Enl     =      -852.256885
siesta: DEna    =      -277.869042
siesta: DUscf   =        24.539330
siesta: DUext   =         0.000000
siesta: Exc     =     -4086.094122
siesta: eta*DQ  =         0.000000
siesta: Emadel  =         0.000000
siesta: Emeta   =         0.000000
siesta: Emolmec =         0.000000
siesta: Ekinion =         0.000000
siesta: Eharris =    -11921.400979
siesta: Etot    =    -11921.402738
siesta: FreeEng =    -11921.425044

siesta: Final energy (eV):
siesta:  Band Struct. =   -3991.021799
siesta:       Kinetic =    7999.182503
siesta:       Hartree =   23488.117198
siesta:    Ext. field =       0.000000
siesta:   Exch.-corr. =   -4086.094122
siesta:  Ion-electron =  -54368.448569
siesta:       Ion-ion =   15045.840251
siesta:       Ekinion =       0.000000
siesta:         Total =  -11921.402738

siesta: Atomic forces (eV/Ang):
siesta:      1    0.881029    0.233061    0.000000
siesta:      2   -0.882186    0.231854    0.000000
siesta:      3   -0.001425   -0.643132    0.000000
siesta:      4    0.008019    0.039591    0.000000
siesta:      5   -0.082980    0.127992    0.000000
siesta:      6    0.045557    0.041718    0.000000
siesta:      7   -0.007458   -0.151960    0.000000
siesta:      8    0.007607   -0.095121    0.000000
siesta:      9    0.066919   -0.019900    0.000000
siesta:     10    0.087696   -0.265543    0.000000
siesta:     11    0.013911    0.101456    0.000000
siesta:     12    0.316845   -0.446905    0.000000
siesta:     13   -0.142484    0.198881    0.000000
siesta:     14   -0.339549    0.162485    0.000000
siesta:     15    0.116609    0.133570    0.000000
siesta:     16   -0.374295   -0.027642    0.000000
siesta:     17   -0.513343   -0.173237    0.000000
siesta:     18   -0.100269    0.252714    0.000000
siesta:     19    0.019153   -0.174626    0.000000
siesta:     20    0.039159    0.046395    0.000000
siesta:     21   -0.036666   -0.171942    0.000000
siesta:     22    0.094939    0.251451    0.000000
siesta:     23    0.535025   -0.174345    0.000000
siesta:     24    0.383679   -0.025235    0.000000
siesta:     25   -0.010022   -0.768280    0.000000
siesta:     26    0.153967    0.205698    0.000000
siesta:     27   -0.301020   -0.448465    0.000000
siesta:     28    0.215493   -0.145903    0.000000
siesta:     29   -0.054926   -0.024996    0.000000
siesta:     30    0.094693    0.040502    0.000000
siesta:     31   -0.034716    0.012713    0.000000
siesta:     32   -0.067898    0.048619    0.000000
siesta:     33    0.073281   -0.025703    0.000000
siesta:     34   -0.217162   -0.146374    0.000000
siesta:     35   -0.088898   -0.259265    0.000000
siesta:     36    0.141851    0.048818    0.000000
siesta:     37   -0.078418    0.035341    0.000000
siesta:     38    0.005399   -0.046408    0.000000
siesta:     39    0.005628   -0.039557    0.000000
siesta:     40    0.040127   -0.002325    0.000000
siesta:     41   -0.021217   -0.030992    0.000000
siesta:     42   -0.011392   -0.046671    0.000000
siesta:     43   -0.069938   -0.041726    0.000000
siesta:     44    0.096019   -0.038013    0.000000
siesta:     45   -0.046348    0.040124    0.000000
siesta:     46    0.076821   -0.045148    0.000000
siesta:     47   -0.034019    0.014106    0.000000
siesta:     48   -0.050672   -0.038054    0.000000
siesta:     49   -0.040046    0.114608    0.000000
siesta:     50    0.181399   -0.233370    0.000000
siesta:     51   -0.104237    0.054802    0.000000
siesta:     52    0.039794   -0.012301    0.000000
siesta:     53    0.544566    0.712154    0.000000
siesta:     54   -0.393580   -0.002943    0.000000
siesta:     55   -0.031770    0.939222    0.000000
siesta:     56    0.416000    0.005716    0.000000
siesta:     57    0.091478    0.034921    0.000000
siesta:     58   -0.144993    0.046998    0.000000
siesta:     59    0.063063    0.040550    0.000000
siesta:     60   -0.098622   -0.040565    0.000000
siesta:     61    0.087603    0.064468    0.000000
siesta:     62   -0.190349   -0.232278    0.000000
siesta:     63    0.067991   -0.046953    0.000000
siesta:     64   -0.052673   -0.015261    0.000000
siesta:     65    0.040329    0.110498    0.000000
siesta:     66    0.029060   -0.149342    0.000000
siesta:     67   -0.512463    0.715790    0.000000
siesta:     68    0.462834   -0.169838    0.000000
siesta:     69   -0.033843    0.041437    0.000000
siesta:     70    0.000513   -0.054917    0.000000
siesta:     71    0.310938    0.168132    0.000000
siesta:     72   -0.492278   -0.165087    0.000000
siesta: ----------------------------------------
siesta:    Tot    0.192840   -0.323935    0.000000

siesta: Stress tensor (static) (eV/Ang**3):
siesta:    -0.017586   -0.000248    0.000000
siesta:    -0.000248   -0.017585    0.000000
siesta:     0.000000    0.000000    0.000024

siesta: Cell volume =       1893.098801 Ang**3

siesta: Pressure (static):
siesta:                Solid            Molecule  Units
siesta:           0.00012760          0.00008648  Ry/Bohr**3
siesta:           0.01171573          0.00793993  eV/Ang**3
siesta:          18.77086678         12.72130501  kBar
(Free)E+ p_basis*V_orbitals  =      -11890.973352
(Free)Eharris+ p_basis*V_orbitals  =      -11890.972645

siesta: Electric dipole (a.u.)  =    0.000000    0.000000    0.000000
siesta: Electric dipole (Debye) =    0.000000    0.000000    0.000000

* Maximum dynamic memory allocated : Node    0 =   207 MB
* Maximum dynamic memory allocated : Node    1 =    75 MB
* Maximum dynamic memory allocated : Node    2 =    77 MB
* Maximum dynamic memory allocated : Node    3 =   197 MB
* Maximum dynamic memory allocated : Node    4 =   208 MB
* Maximum dynamic memory allocated : Node    5 =    75 MB
* Maximum dynamic memory allocated : Node    6 =    77 MB
* Maximum dynamic memory allocated : Node    7 =   192 MB

* Maximum memory occured during matrixMtoO                    

timer: CPU execution times:
timer:  Routine       Calls   Time/call    Tot.time        %
timer:  siesta            1  182875.219  182875.219   100.00
timer:  Setup             1       3.034       3.034     0.00
timer:  bands             1       0.007       0.007     0.00
timer:  writewave         1       0.016       0.016     0.00
timer:  KSV_init          1       0.000       0.000     0.00
timer:  IterMD            1  182864.035  182864.035    99.99
timer:  hsparse           1       0.256       0.256     0.00
timer:  overlap           1       4.652       4.652     0.00
timer:  IterSCF          28    6524.665  182690.609    99.90
timer:  kinefsm           2       2.422       4.844     0.00
timer:  nlefsm            2      19.293      38.586     0.02
timer:  DHSCF            29      95.248    2762.206     1.51
timer:  DHSCF1            1       0.767       0.767     0.00
timer:  DHSCF2            1      33.423      33.423     0.02
timer:  REORD           234       0.010       2.370     0.00
timer:  POISON           30       2.244      67.321     0.04
timer:  DHSCF3           29      92.891    2693.834     1.47
timer:  rhoofd           29      17.441     505.795     0.28
timer:  cellXC           29       3.501     101.538     0.06
timer:  vmat             29      48.589    1409.095     0.77
timer:  MolMec            2       0.000       0.000     0.00
timer:  diagon           28    6428.001  179984.032    98.42
timer:  c-eigval       9856       6.682   65859.103    36.01
timer:  c-buildHS      9856       0.120    1178.504     0.64
timer:  cdiag         19712       6.850  135035.295    73.84
timer:  cdiag1        19712       0.428    8436.452     4.61
timer:  cdiag2        19712       1.908   37605.824    20.56
timer:  cdiag3        19712       3.949   77842.802    42.57
timer:  cdiag4        19712       0.205    4033.308     2.21
timer:  c-eigvec       9856       7.211   71075.348    38.87
timer:  c-buildD       9856       4.359   42967.058    23.50
timer:  DHSCF4            1      32.652      32.652     0.02
timer:  dfscf             1      30.789      30.789     0.02
timer:  overfsm           1       0.383       0.383     0.00
timer:  optical           1       7.131       7.131     0.00
  

elaps: ELAPSED times:
elaps:  Routine       Calls   Time/call    Tot.time        %
elaps:  siesta            1   22885.086   22885.086   100.00
elaps:  Setup             1       0.380       0.380     0.00
elaps:  bands             1       0.001       0.001     0.00
elaps:  writewave         1       0.002       0.002     0.00
elaps:  KSV_init          1       0.000       0.000     0.00
elaps:  IterMD            1   22883.685   22883.685    99.99
elaps:  hsparse           1       0.031       0.031     0.00
elaps:  overlap           1       0.970       0.970     0.00
elaps:  IterSCF          28     816.500   22861.990    99.90
elaps:  kinefsm           2       0.496       0.993     0.00
elaps:  nlefsm            2       2.338       4.677     0.02
elaps:  DHSCF            29      12.029     348.855     1.52
elaps:  DHSCF1            1       0.098       0.098     0.00
elaps:  DHSCF2            1       4.182       4.182     0.02
elaps:  REORD           234       0.001       0.307     0.00
elaps:  POISON           30       0.281       8.443     0.04
elaps:  DHSCF3           29      11.621     337.009     1.47
elaps:  rhoofd           29       3.709     107.554     0.47
elaps:  cellXC           29       0.437      12.674     0.06
elaps:  vmat             29       6.078     176.269     0.77
elaps:  MolMec            2       0.000       0.000     0.00
elaps:  diagon           28     804.422   22523.817    98.42
elaps:  c-eigval       9856       0.836    8239.943    36.01
elaps:  c-buildHS      9856       0.016     159.934     0.70
elaps:  cdiag         19712       0.847   16696.353    72.96
elaps:  cdiag1        19712       0.054    1061.480     4.64
elaps:  cdiag2        19712       0.239    4705.348    20.56
elaps:  cdiag3        19712       0.495    9752.815    42.62
elaps:  cdiag4        19712       0.026     505.923     2.21
elaps:  c-eigvec       9856       0.887    8741.367    38.20
elaps:  c-buildD       9856       0.561    5530.257    24.17
elaps:  DHSCF4            1       7.357       7.357     0.03
elaps:  dfscf             1       6.976       6.976     0.03
elaps:  overfsm           1       0.048       0.048     0.00
elaps:  optical           1       0.000       0.000     0.00
  
>> End of run:  26-NOV-2015  23:43:56
