Siesta Version:                                        siesta-3.2-pl-3
Architecture  : x86_64-unknown-linux-gnu--unknown
Compiler flags: mpiifort -g -O2 -fPIC -xSSE4.1 -fp-model source -shared-intel 
PARALLEL version

* Running on    8 nodes in parallel
>> Start of run:   8-DEC-2015  14:58:36

                           ***********************       
                           *  WELCOME TO SIESTA  *       
                           ***********************       

reinit: Reading from standard input
************************** Dump of input data file ****************************
#(1) General system descriptors
SystemName            GRP_doping    # Descriptive name of the system
SystemLabel           GRP_doping    # Short name for naming files
%include STRUCT.fdf
%include KPT.fdf
%include BASIS.fdf
#%include TS.fdf # for transiesta calculation
#(4) DFT, Grid, SCF
XC.functional         GGA           # LDA or GGA (default = LDA)
XC.authors            PBE           # CA (Ceperley-Aldr) = PZ
                                    #    (Perdew-Zunger) - LDA - Default
                                    # PW92 (Perdew-Wang-92) - LDA
                                    # PBE (Perdew-Burke-Ernzerhof) - GGA
MeshCutoff            200.000000    Ry      # Default: 50.0 Ry ~ 0.444 Bohr
                                    #         100.0 Ry ~ 0.314 Bohr
MaxSCFIterations      500           # Default: 50
DM.MixingWeight       0.05          # Default: 0.25
DM.NumberPulay        10            # Default: 0
DM.PulayOnFile        F             # SystemLabel.P1, SystemLabel.P2
DM.Tolerance          1.d-4         # Default: 1.d-4
DM.UseSaveDM          .true.        # because of the bug
SCFMustConverge       .true.
NeglNonOverlapInt     F             # Default: F
#(5) Eigenvalue problem: order-N or diagonalization
SolutionMethod        Diagon        # or Transiesta
ElectronicTemperature 300.0 K       # Default: 300.0 K
#(6) Molecular dynamics and relaxations
#MD.TypeOfRun          CG            # Type of dynamics:
#MD.VariableCell       F
#MD.NumCGsteps         0           # 0 for single-point / 100 for gopt
#MD.MaxCGDispl         0.2 Bohr      # Default: 0.2 Bohr
#MD.MaxForceTol        0.02 eV/Ang   # Default: 0.04 eV/Ang
#MD.MaxStressTol       1.0 GPa       # Default: 1.0 GPa
# Geometry Constraints
#%block GeometryConstraints
#	position from 1 to 44
#%endblock GeometryConstraints
BandLinesScale   pi/a
%block BandLines
 1   0.00000000  0.00000000  0.00000000
50   0.00000000  0.07809418  0.00000000
50   0.04509075  0.07809242  0.00000000
20   0.00000000  0.00000000  0.00000000
%endblock BandLines
************************** End of input data file *****************************

reinit: -----------------------------------------------------------------------
reinit: System Name: GRP_doping
reinit: -----------------------------------------------------------------------
reinit: System Label: GRP_doping                                                  
reinit: -----------------------------------------------------------------------

initatom: Reading input for the pseudopotentials and atomic orbitals ----------
 Species number:            1  Label: C Atomic number:           6
 Species number:            2  Label: B Atomic number:           5
Ground state valence configuration:   2s02  2p02
Reading pseudopotential information in formatted form from C.psf

Valence configuration for pseudopotential generation:
2s( 2.00) rc: 1.54
2p( 2.00) rc: 1.54
3d( 0.00) rc: 1.54
4f( 0.00) rc: 1.54
Ground state valence configuration:   2s02  2p01
Reading pseudopotential information in formatted form from B.psf

Valence configuration for pseudopotential generation:
2s( 2.00) rc: 1.74
2p( 1.00) rc: 1.74
3d( 0.00) rc: 1.74
4f( 0.00) rc: 1.74
For C, standard SIESTA heuristics set lmxkb to 3
 (one more than the basis l, including polarization orbitals).
Use PS.lmax or PS.KBprojectors blocks to override.
For B, standard SIESTA heuristics set lmxkb to 3
 (one more than the basis l, including polarization orbitals).
Use PS.lmax or PS.KBprojectors blocks to override.

<basis_specs>
===============================================================================
C                    Z=   6    Mass=  12.010        Charge= 0.17977+309
Lmxo=1 Lmxkb= 3    BasisType=split      Semic=F
L=0  Nsemic=0  Cnfigmx=2
          n=1  nzeta=2  polorb=0
            splnorm:   0.15000    
               vcte:    0.0000    
               rinn:    0.0000    
                rcs:    0.0000      0.0000    
            lambdas:    1.0000      1.0000    
L=1  Nsemic=0  Cnfigmx=2
          n=1  nzeta=2  polorb=1
            splnorm:   0.15000    
               vcte:    0.0000    
               rinn:    0.0000    
                rcs:    0.0000      0.0000    
            lambdas:    1.0000      1.0000    
-------------------------------------------------------------------------------
L=0  Nkbl=1  erefs: 0.17977+309
L=1  Nkbl=1  erefs: 0.17977+309
L=2  Nkbl=1  erefs: 0.17977+309
L=3  Nkbl=1  erefs: 0.17977+309
===============================================================================
</basis_specs>

atom: Called for C                     (Z =   6)

read_vps: Pseudopotential generation method:
read_vps: ATM3      Troullier-Martins                       
Total valence charge:    4.00000

read_vps: Pseudopotential includes a core correction:
read_vps: Pseudo-core for xc-correction

xc_check: Exchange-correlation functional:
xc_check: GGA Perdew, Burke & Ernzerhof 1996
V l=0 = -2*Zval/r beyond r=  1.5227
V l=1 = -2*Zval/r beyond r=  1.5227
V l=2 = -2*Zval/r beyond r=  1.5227
V l=3 = -2*Zval/r beyond r=  1.5038
All V_l potentials equal beyond r=  1.5227
This should be close to max(r_c) in ps generation
All pots = -2*Zval/r beyond r=  1.5227

VLOCAL1: 99.0% of the norm of Vloc inside     18.722 Ry
VLOCAL1: 99.9% of the norm of Vloc inside     42.668 Ry
atom: Maximum radius for 4*pi*r*r*local-pseudopot. charge    1.83678
atom: Maximum radius for r*vlocal+2*Zval:    1.58088
GHOST: No ghost state for L =  0
GHOST: No ghost state for L =  1
GHOST: No ghost state for L =  2
GHOST: No ghost state for L =  3

KBgen: Kleinman-Bylander projectors: 
   l= 0   rc=  1.704034   el= -1.009801   Ekb=  5.335044   kbcos=  0.316824
   l= 1   rc=  1.704034   el= -0.388707   Ekb= -3.785862   kbcos= -0.366464
   l= 2   rc=  1.791422   el=  0.001971   Ekb= -0.970471   kbcos= -0.009212
   l= 3   rc=  1.859892   el=  0.003065   Ekb= -0.399525   kbcos= -0.001223

KBgen: Total number of  Kleinman-Bylander projectors:   16
atom: -------------------------------------------------------------------------

atom: SANKEY-TYPE ORBITALS:
atom: Selected multiple-zeta basis: split     

SPLIT: Orbitals with angular momentum L= 0

SPLIT: Basis orbitals for state 2s

SPLIT: PAO cut-off radius determined from an
SPLIT: energy shift=  0.007350 Ry

   izeta = 1
                 lambda =    1.000000
                     rc =    4.632753
                 energy =   -1.002270
                kinetic =    0.855760
    potential(screened) =   -1.858031
       potential(ionic) =   -5.417575

   izeta = 2
                 rmatch =    3.431921
              splitnorm =    0.150000
                 energy =   -0.867111
                kinetic =    1.300804
    potential(screened) =   -2.167915
       potential(ionic) =   -5.962684

SPLIT: Orbitals with angular momentum L= 1

SPLIT: Basis orbitals for state 2p

SPLIT: PAO cut-off radius determined from an
SPLIT: energy shift=  0.007350 Ry

   izeta = 1
                 lambda =    1.000000
                     rc =    5.658549
                 energy =   -0.381140
                kinetic =    2.399701
    potential(screened) =   -2.780841
       potential(ionic) =   -6.206085

   izeta = 2
                 rmatch =    3.653288
              splitnorm =    0.150000
                 energy =   -0.249149
                kinetic =    3.542762
    potential(screened) =   -3.791911
       potential(ionic) =   -7.581078

POLgen: Perturbative polarization orbital with L=  2

POLgen: Polarization orbital for state 2p

   izeta = 1
                     rc =    5.658549
                 energy =    1.109913
                kinetic =    2.304789
    potential(screened) =   -1.194876
       potential(ionic) =   -4.013592
atom: Total number of Sankey-type orbitals: 13

atm_pop: Valence configuration (for local Pseudopot. screening):
 2s( 2.00)                                                            
 2p( 2.00)                                                            
Vna: chval, zval:    4.00000   4.00000

Vna:  Cut-off radius for the neutral-atom potential:   5.658549
comcore: Pseudo-core radius Rcore=  1.791422

atom: _________________________________________________________________________

<basis_specs>
===============================================================================
B                    Z=   5    Mass=  10.810        Charge= 0.17977+309
Lmxo=1 Lmxkb= 3    BasisType=split      Semic=F
L=0  Nsemic=0  Cnfigmx=2
          n=1  nzeta=2  polorb=0
            splnorm:   0.15000    
               vcte:    0.0000    
               rinn:    0.0000    
                rcs:    0.0000      0.0000    
            lambdas:    1.0000      1.0000    
L=1  Nsemic=0  Cnfigmx=2
          n=1  nzeta=2  polorb=1
            splnorm:   0.15000    
               vcte:    0.0000    
               rinn:    0.0000    
                rcs:    0.0000      0.0000    
            lambdas:    1.0000      1.0000    
-------------------------------------------------------------------------------
L=0  Nkbl=1  erefs: 0.17977+309
L=1  Nkbl=1  erefs: 0.17977+309
L=2  Nkbl=1  erefs: 0.17977+309
L=3  Nkbl=1  erefs: 0.17977+309
===============================================================================
</basis_specs>

atom: Called for B                     (Z =   5)

read_vps: Pseudopotential generation method:
read_vps: ATM3      Troullier-Martins                       
Total valence charge:    3.00000

read_vps: Pseudopotential includes a core correction:
read_vps: Pseudo-core for xc-correction

xc_check: Exchange-correlation functional:
xc_check: GGA Perdew, Burke & Ernzerhof 1996
V l=0 = -2*Zval/r beyond r=  1.7165
V l=1 = -2*Zval/r beyond r=  1.7165
V l=2 = -2*Zval/r beyond r=  1.7165
V l=3 = -2*Zval/r beyond r=  1.6951
All V_l potentials equal beyond r=  1.7165
This should be close to max(r_c) in ps generation
All pots = -2*Zval/r beyond r=  1.7165

VLOCAL1: 99.0% of the norm of Vloc inside     14.733 Ry
VLOCAL1: 99.9% of the norm of Vloc inside     33.577 Ry
atom: Maximum radius for 4*pi*r*r*local-pseudopot. charge    2.04484
atom: Maximum radius for r*vlocal+2*Zval:    1.75994
GHOST: No ghost state for L =  0
GHOST: No ghost state for L =  1
GHOST: No ghost state for L =  2
GHOST: No ghost state for L =  3

KBgen: Kleinman-Bylander projectors: 
   l= 0   rc=  1.897051   el= -0.693730   Ekb=  4.595746   kbcos=  0.286105
   l= 1   rc=  1.920920   el= -0.265236   Ekb= -2.350715   kbcos= -0.315747
   l= 2   rc=  2.044840   el=  0.002055   Ekb= -0.690767   kbcos= -0.013822
   l= 3   rc=  2.149707   el=  0.003188   Ekb= -0.315358   kbcos= -0.002055

KBgen: Total number of  Kleinman-Bylander projectors:   16
atom: -------------------------------------------------------------------------

atom: SANKEY-TYPE ORBITALS:
atom: Selected multiple-zeta basis: split     

SPLIT: Orbitals with angular momentum L= 0

SPLIT: Basis orbitals for state 2s

SPLIT: PAO cut-off radius determined from an
SPLIT: energy shift=  0.007350 Ry

   izeta = 1
                 lambda =    1.000000
                     rc =    5.422032
                 energy =   -0.686029
                kinetic =    0.576707
    potential(screened) =   -1.262736
       potential(ionic) =   -3.271094

   izeta = 2
                 rmatch =    4.222573
              splitnorm =    0.150000
                 energy =   -0.602132
                kinetic =    0.858975
    potential(screened) =   -1.461107
       potential(ionic) =   -3.582536

SPLIT: Orbitals with angular momentum L= 1

SPLIT: Basis orbitals for state 2p

SPLIT: PAO cut-off radius determined from an
SPLIT: energy shift=  0.007350 Ry

   izeta = 1
                 lambda =    1.000000
                     rc =    6.790259
                 energy =   -0.258578
                kinetic =    1.481412
    potential(screened) =   -1.739989
       potential(ionic) =   -3.657461

   izeta = 2
                 rmatch =    4.608740
              splitnorm =    0.150000
                 energy =   -0.173757
                kinetic =    2.186690
    potential(screened) =   -2.360447
       potential(ionic) =   -4.464260

POLgen: Perturbative polarization orbital with L=  2

POLgen: Polarization orbital for state 2p

   izeta = 1
                     rc =    6.790259
                 energy =    0.684082
                kinetic =    1.471481
    potential(screened) =   -0.787399
       potential(ionic) =   -2.406985
atom: Total number of Sankey-type orbitals: 13

atm_pop: Valence configuration (for local Pseudopot. screening):
 2s( 2.00)                                                            
 2p( 1.00)                                                            
Vna: chval, zval:    3.00000   3.00000

Vna:  Cut-off radius for the neutral-atom potential:   6.790259
comcore: Pseudo-core radius Rcore=  2.122997

atom: _________________________________________________________________________

prinput: Basis input ----------------------------------------------------------

PAO.BasisType split     

%block ChemicalSpeciesLabel
    1    6 C                       # Species index, atomic number, species label
    2    5 B                       # Species index, atomic number, species label
%endblock ChemicalSpeciesLabel

%block PAO.Basis                 # Define Basis set
C                     2                    # Species label, number of l-shells
 n=2   0   2                         # n, l, Nzeta 
   4.633      3.432   
   1.000      1.000   
 n=2   1   2 P   1                   # n, l, Nzeta, Polarization, NzetaPol
   5.659      3.653   
   1.000      1.000   
B                     2                    # Species label, number of l-shells
 n=2   0   2                         # n, l, Nzeta 
   5.422      4.223   
   1.000      1.000   
 n=2   1   2 P   1                   # n, l, Nzeta, Polarization, NzetaPol
   6.790      4.609   
   1.000      1.000   
%endblock PAO.Basis

prinput: ----------------------------------------------------------------------

coor:   Atomic-coordinates input format  =     Cartesian coordinates
coor:                                          (in Angstroms)

siesta: Atomic coordinates (Bohr) and species
siesta:      2.23554   1.32097   0.00000  1        1
siesta:      4.56367   2.66461   0.00000  1        2
siesta:     32.50328  21.48508   0.00000  1        3
siesta:     34.83141  22.82873   0.00000  1        4
siesta:     34.83116  17.45226   0.00000  1        5
siesta:     37.15930  18.79590   0.00000  1        6
siesta:     32.50291  13.41944   0.00000  1        7
siesta:     34.83104  14.76308   0.00000  1        8
siesta:     30.17465   9.38661   0.00000  1        9
siesta:     32.50278  10.73026   0.00000  1       10
siesta:     27.84639   5.35379   0.00000  1       11
siesta:     30.17453   6.69743   0.00000  1       12
siesta:     27.84714  21.48508   0.00000  1       13
siesta:     30.17527  22.82873   0.00000  1       14
siesta:      6.89168   1.32097   0.00000  1       15
siesta:      9.21981   2.66461   0.00000  1       16
siesta:     11.54782   1.32097   0.00000  1       17
siesta:     13.87595   2.66461   0.00000  1       18
siesta:     16.20396   1.32097   0.00000  1       19
siesta:     18.53210   2.66461   0.00000  1       20
siesta:     20.86199   1.32097   0.00000  1       21
siesta:     23.19013   2.66461   0.00000  1       22
siesta:     25.51813   1.32097   0.00000  1       23
siesta:     27.84627   2.66461   0.00000  1       24
siesta:      4.56380   5.35379   0.00000  1       25
siesta:      6.89193   6.69743   0.00000  1       26
siesta:      9.21994   5.35379   0.00000  1       27
siesta:     11.54807   6.69743   0.00000  1       28
siesta:     13.87608   5.35379   0.00000  1       29
siesta:     16.20421   6.69743   0.00000  1       30
siesta:     18.53411   5.35379   0.00000  1       31
siesta:     20.86224   6.69743   0.00000  1       32
siesta:     23.19025   5.35379   0.00000  1       33
siesta:     25.51838   6.69743   0.00000  1       34
siesta:      6.89205   9.38661   0.00000  1       35
siesta:      9.22019  10.73026   0.00000  1       36
siesta:     11.54820   9.38661   0.00000  1       37
siesta:     13.87633  10.73026   0.00000  1       38
siesta:     16.20434   9.38661   0.00000  1       39
siesta:      9.22031  13.41944   0.00000  1       40
siesta:     11.54845  14.76308   0.00000  1       41
siesta:     13.87645  13.41944   0.00000  1       42
siesta:     16.20459  14.76308   0.00000  1       43
siesta:     11.54857  17.45226   0.00000  1       44
siesta:     13.87670  18.79590   0.00000  1       45
siesta:     16.20471  17.45226   0.00000  1       46
siesta:     18.53284  18.79590   0.00000  1       47
siesta:     13.87683  21.48508   0.00000  1       48
siesta:     16.20496  22.82873   0.00000  1       49
siesta:     18.53486  21.48508   0.00000  1       50
siesta:     20.86299  22.82873   0.00000  1       51
siesta:     25.51851   9.38661   0.00000  1       52
siesta:     27.84664  10.73026   0.00000  1       53
siesta:     23.19063  13.41944   0.00000  1       54
siesta:     25.51876  14.76308   0.00000  1       55
siesta:     20.86274  17.45226   0.00000  1       56
siesta:     23.19088  18.79590   0.00000  1       57
siesta:     27.84677  13.41944   0.00000  1       58
siesta:     30.17490  14.76308   0.00000  1       59
siesta:     25.51888  17.45226   0.00000  1       60
siesta:     27.84702  18.79590   0.00000  1       61
siesta:     23.19100  21.48508   0.00000  1       62
siesta:     25.51913  22.82873   0.00000  1       63
siesta:     30.17503  17.45226   0.00000  1       64
siesta:     32.50316  18.79590   0.00000  1       65
siesta:     37.16131  21.48508   0.00000  1       66
siesta:     39.48945  22.82873   0.00000  1       67
siesta:     18.53247  10.73026   0.00000  2       68
siesta:     20.86237   9.38661   0.00000  2       69
siesta:     23.19050  10.73026   0.00000  2       70
siesta:     18.53448  13.41944   0.00000  2       71
siesta:     20.86262  14.76308   0.00000  2       72

siesta: System type = slab      

initatomlists: Number of atoms, orbitals, and projectors:     72   936  1152

siesta: ******************** Simulation parameters ****************************
siesta:
siesta: The following are some of the parameters of the simulation.
siesta: A complete list of the parameters used, including default values,
siesta: can be found in file out.fdf
siesta:
redata: Non-Collinear-spin run           =     F
redata: SpinPolarized (Up/Down) run      =     F
redata: Number of spin components        =     1
redata: Long output                      =     F
redata: Number of Atomic Species         =        2
redata: Charge density info will appear in .RHO file
redata: Write Mulliken Pop.              =     NO
redata: Mesh Cutoff                      =   200.0000  Ry
redata: Net charge of the system         =     0.0000 |e|
redata: Max. number of SCF Iter          =      500
redata: SCF convergence failure will abort job
redata: Performing Pulay mixing using    =    10 iterations
redata: Mix DM in first SCF step ?       =     F
redata: Write Pulay info on disk?        =     F
redata: Discard 1st Pulay DM after  kick =     F
redata: New DM Mixing Weight             =     0.0500
redata: New DM Occupancy tolerance       = 0.000000000001
redata: No kicks to SCF
redata: DM Mixing Weight for Kicks       =     0.5000
redata: DM Tolerance for SCF             =     0.000100
redata: Require Energy convergence for SCF =     F
redata: DM Energy tolerance for SCF      =     0.000100 eV
redata: Require Harris convergence for SCF =     F
redata: DM Harris energy tolerance for SCF =     0.000100 eV
redata: Using Saved Data (generic)   =     F
redata: Use continuation files for DM    =     T
redata: Neglect nonoverlap interactions  =     F
redata: Method of Calculation            =     Diagonalization
redata: Divide and Conquer               =     T
redata: Electronic Temperature           =     0.0019  Ry
redata: Fix the spin of the system       =     F
redata: Dynamics option                  =     Verlet MD run
redata: Initial MD time step             =        1
redata:   Final MD time step             =        1
redata: Length of MD time step           =     1.0000  fs
redata: Initial Temperature of MD run    =     0.0000  K
redata: Perform a MD quench              =     F
redata: ***********************************************************************
Total number of electrons:   283.000000
Total ionic charge:   283.000000

* ProcessorY, Blocksize:    2  24

k-point displ. along   1 input, could be:     0.00    0.50
k-point displ. along   2 input, could be:     0.00    0.50
 Kpoints in:          364 . Kpoints trimmed:          352

siesta: k-grid: Number of k-points =   352
siesta: k-grid: Cutoff (effective) =     5.000 Ang
siesta: k-grid: Supercell and displacements
siesta: k-grid:   26   0   0      0.000
siesta: k-grid:    0  26   0      0.000
siesta: k-grid:    0   0   1      0.000
Naive supercell factors:     2    2    2

superc: Internal auxiliary supercell:     2 x     2 x     2  =       8
superc: Number of atoms, orbitals, and projectors:    576   7488   9216

* Maximum dynamic memory allocated =     6 MB

siesta:                 ==============================
                            Begin MD step =      1
                        ==============================

superc: Internal auxiliary supercell:     2 x     2 x     2  =       8
superc: Number of atoms, orbitals, and projectors:    576   7488   9216

outcell: Unit cell vectors (Ang):
       14.785000    0.000000    0.000000
        7.393000   12.805052    0.000000
        0.000000    0.000000   10.000000

outcell: Cell vector modules (Ang)   :   14.785000   14.786000   10.000000
outcell: Cell angles (23,13,12) (deg):     90.0000     90.0000     60.0000
outcell: Cell volume (Ang**3)        :   1893.2269
New_DM. Step:     1
Initializing Density Matrix...

iodm: Reading Density Matrix from files

InitMesh: MESH =   120 x   120 x    90 =     1296000
InitMesh: Mesh cutoff (required, used) =   200.000   223.865 Ry

* Maximum dynamic memory allocated =   203 MB

stepf: Fermi-Dirac step function

siesta: Program's energy decomposition (eV):
siesta: Ebs     =     -3815.416255
siesta: Eions   =     17762.727515
siesta: Ena     =      3861.816918
siesta: Ekin    =      7588.500139
siesta: Enl     =      -734.602149
siesta: DEna    =      -308.787814
siesta: DUscf   =        29.845880
siesta: DUext   =         0.000000
siesta: Exc     =     -4055.657122
siesta: eta*DQ  =         0.000000
siesta: Emadel  =         0.000000
siesta: Emeta   =         0.000000
siesta: Emolmec =         0.000000
siesta: Ekinion =         0.000000
siesta: Eharris =    -11381.611909
siesta: Etot    =    -11381.611663
siesta: FreeEng =    -11381.611663

siesta: iscf   Eharris(eV)      E_KS(eV)   FreeEng(eV)   dDmax  Ef(eV)
siesta:    1   -11381.6119   -11381.6117   -11381.6117  0.0000 -5.1647
timer: Routine,Calls,Time,% = IterSCF        1    8193.207  99.85
elaps: Routine,Calls,Wall,% = IterSCF        1    1025.835  99.85

siesta: E_KS(eV) =           -11381.6119

siesta: E_KS - E_eggbox =    -11381.6119

siesta: Atomic forces (eV/Ang):
----------------------------------------
   Tot    0.176309   -0.264347    0.000000
----------------------------------------
   Max    5.818602
   Res    1.030427    sqrt( Sum f_i^2 / 3N )
----------------------------------------
   Max    5.818602    constrained

Stress-tensor-Voigt (kbar):      -78.68      -80.44       -0.13        1.93        0.00        0.00
(Free)E + p*V (eV/cell)   -11318.9359
Target enthalpy (eV/cell)   -11381.6635

siesta: Stress tensor (static) (eV/Ang**3):
        -0.049111    0.001208    0.000000
         0.001208   -0.050204    0.000000
         0.000000    0.000000   -0.000083

siesta: Pressure (static):         53.08488070  kBar

siesta: Stress tensor (total) (eV/Ang**3):
        -0.049111    0.001208    0.000000
         0.001208   -0.050204    0.000000
         0.000000    0.000000   -0.000083

siesta: Pressure (total):         53.08488070  kBar

siesta: Temp_ion =       0.000 K

* Maximum dynamic memory allocated =   216 MB
Computing bands...

siesta: Program's energy decomposition (eV):
siesta: Ebs     =     -3815.416255
siesta: Eions   =     17762.727515
siesta: Ena     =      3861.816918
siesta: Ekin    =      7588.502857
siesta: Enl     =      -734.603456
siesta: DEna    =      -308.789441
siesta: DUscf   =        29.846264
siesta: DUext   =         0.000000
siesta: Exc     =     -4055.657534
siesta: eta*DQ  =         0.000000
siesta: Emadel  =         0.000000
siesta: Emeta   =         0.000000
siesta: Emolmec =         0.000000
siesta: Ekinion =         0.000000
siesta: Eharris =    -11381.611909
siesta: Etot    =    -11381.611907
siesta: FreeEng =    -11381.663505

siesta: Final energy (eV):
siesta:  Band Struct. =   -3815.416255
siesta:       Kinetic =    7588.502857
siesta:       Hartree =   22345.499592
siesta:    Ext. field =       0.000000
siesta:   Exch.-corr. =   -4055.657534
siesta:  Ion-electron =  -51657.311959
siesta:       Ion-ion =   14397.355137
siesta:       Ekinion =       0.000000
siesta:         Total =  -11381.611907

siesta: Atomic forces (eV/Ang):
siesta:      1   -0.292743   -0.192232    0.000000
siesta:      2    0.198191    0.113902    0.000000
siesta:      3    0.210872   -0.067429    0.000000
siesta:      4    0.002642   -0.149187    0.000000
siesta:      5    0.053953    0.194900    0.000000
siesta:      6   -0.139398    0.056391    0.000000
siesta:      7    0.243821   -0.099088    0.000000
siesta:      8   -0.006215   -0.297724    0.000000
siesta:      9    0.051797   -0.010196    0.000000
siesta:     10    0.175151    0.056271    0.000000
siesta:     11   -0.206128    0.035618    0.000000
siesta:     12   -0.122980    0.152320    0.000000
siesta:     13    0.050392    0.238619    0.000000
siesta:     14   -0.269833    0.156276    0.000000
siesta:     15    0.022438    0.154715    0.000000
siesta:     16   -0.178359    0.084804    0.000000
siesta:     17    0.271183   -0.112505    0.000000
siesta:     18   -0.094171   -0.256237    0.000000
siesta:     19   -0.166723   -0.220167    0.000000
siesta:     20   -0.019969    0.216291    0.000000
siesta:     21    0.030836    0.130707    0.000000
siesta:     22    0.052717    0.134709    0.000000
siesta:     23    0.189960   -0.208724    0.000000
siesta:     24    0.074559   -0.253997    0.000000
siesta:     25    0.162515   -0.089312    0.000000
siesta:     26   -0.017593   -0.191153    0.000000
siesta:     27   -0.125705   -0.088374    0.000000
siesta:     28    0.123651    0.075310    0.000000
siesta:     29    0.194086    0.051530    0.000000
siesta:     30   -0.904988    0.441870    0.000000
siesta:     31    0.793046   -0.698871    0.000000
siesta:     32    0.405885   -3.442073    0.000000
siesta:     33   -0.941368   -0.753368    0.000000
siesta:     34    1.054967    0.528066    0.000000
siesta:     35    0.054341    0.258549    0.000000
siesta:     36   -0.270938    0.051647    0.000000
siesta:     37    0.152601    0.115046    0.000000
siesta:     38   -0.080078   -1.027942    0.000000
siesta:     39   -3.442224   -2.001401    0.000000
siesta:     40   -0.260696   -0.068000    0.000000
siesta:     41    0.160572   -0.157329    0.000000
siesta:     42   -0.179583    1.052025    0.000000
siesta:     43   -2.752453    2.070089    0.000000
siesta:     44    0.159593   -0.034531    0.000000
siesta:     45    0.143648   -0.016310    0.000000
siesta:     46   -1.101745   -0.462246    0.000000
siesta:     47    1.020434    0.647879    0.000000
siesta:     48   -0.038044    0.229901    0.000000
siesta:     49   -0.148404    0.200810    0.000000
siesta:     50   -0.099639   -0.209574    0.000000
siesta:     51    0.057821   -0.170229    0.000000
siesta:     52    3.215287   -2.208658    0.000000
siesta:     53   -0.082399   -0.681191    0.000000
siesta:     54    2.948642    1.688939    0.000000
siesta:     55   -0.106961   -0.060917    0.000000
siesta:     56   -0.323089    3.874087    0.000000
siesta:     57   -0.639870    0.274463    0.000000
siesta:     58    0.339160    0.415582    0.000000
siesta:     59   -0.285114   -0.131644    0.000000
siesta:     60    0.541832    0.062186    0.000000
siesta:     61   -0.260382   -0.175876    0.000000
siesta:     62    0.029548    0.026584    0.000000
siesta:     63    0.126972    0.136148    0.000000
siesta:     64   -0.037544   -0.037001    0.000000
siesta:     65    0.077339    0.047243    0.000000
siesta:     66   -0.184046   -0.087880    0.000000
siesta:     67    0.212542    0.165845    0.000000
siesta:     68   -2.133579   -1.258912    0.000000
siesta:     69   -1.111195   -5.818602    0.000000
siesta:     70    4.481432    2.899637    0.000000
siesta:     71   -5.624824    1.999360    0.000000
siesta:     72    4.740861    2.436215    0.000000
siesta: ----------------------------------------
siesta:    Tot    0.176309   -0.264347    0.000000

siesta: Stress tensor (static) (eV/Ang**3):
siesta:    -0.049111    0.001208    0.000000
siesta:     0.001208   -0.050204    0.000000
siesta:     0.000000    0.000000   -0.000083

siesta: Cell volume =       1893.226895 Ang**3

siesta: Pressure (static):
siesta:                Solid            Molecule  Units
siesta:           0.00036086          0.00016465  Ry/Bohr**3
siesta:           0.03313262          0.01511733  eV/Ang**3
siesta:          53.08488070         24.22089656  kBar
(Free)E+ p_basis*V_orbitals  =      -11349.346119
(Free)Eharris+ p_basis*V_orbitals  =      -11349.346364

siesta: Electric dipole (a.u.)  =    0.000000    0.000000    0.000000
siesta: Electric dipole (Debye) =    0.000000    0.000000    0.000000

* Maximum dynamic memory allocated : Node    0 =   216 MB
* Maximum dynamic memory allocated : Node    1 =    78 MB
* Maximum dynamic memory allocated : Node    2 =    81 MB
* Maximum dynamic memory allocated : Node    3 =   205 MB
* Maximum dynamic memory allocated : Node    4 =   216 MB
* Maximum dynamic memory allocated : Node    5 =    78 MB
* Maximum dynamic memory allocated : Node    6 =    81 MB
* Maximum dynamic memory allocated : Node    7 =   199 MB

* Maximum memory occured during matrixMtoO                    

timer: CPU execution times:
timer:  Routine       Calls   Time/call    Tot.time        %
timer:  siesta            1    9273.026    9273.026   100.00
timer:  Setup             1       3.186       3.186     0.03
timer:  bands             3     293.597     880.790     9.50
timer:  writewave         1       0.020       0.020     0.00
timer:  KSV_init          1       0.002       0.002     0.00
timer:  IterMD            1    8380.430    8380.430    90.37
timer:  hsparse           1       0.403       0.403     0.00
timer:  overlap           1       5.507       5.507     0.06
timer:  IterSCF           1    8193.207    8193.207    88.36
timer:  kinefsm           2       2.857       5.713     0.06
timer:  nlefsm            2      19.746      39.492     0.43
timer:  DHSCF             2     138.206     276.412     2.98
timer:  DHSCF1            1       1.047       1.047     0.01
timer:  DHSCF2            1      42.615      42.615     0.46
timer:  REORD            18       0.014       0.254     0.00
timer:  POISON            3       3.734      11.203     0.12
timer:  DHSCF3            2      98.594     197.188     2.13
timer:  rhoofd            2      18.720      37.440     0.40
timer:  cellXC            2       3.576       7.152     0.08
timer:  vmat              2      50.251     100.503     1.08
timer:  MolMec            2       0.000       0.000     0.00
timer:  diagon            1    8012.245    8012.245    86.40
timer:  c-eigval        473       7.275    3440.944    37.11
timer:  c-buildHS       473       0.217     102.504     1.11
timer:  cdiag           825       7.403    6107.597    65.86
timer:  cdiag1          825       0.464     383.160     4.13
timer:  cdiag2          825       1.986    1638.541    17.67
timer:  cdiag3          825       4.183    3450.628    37.21
timer:  cdiag4          825       0.213     176.033     1.90
timer:  c-eigvec        352       7.946    2797.133    30.16
timer:  c-buildD        352       7.530    2650.437    28.58
timer:  DHSCF4            1      35.359      35.359     0.38
timer:  dfscf             1      32.833      32.833     0.35
timer:  overfsm           1       0.412       0.412     0.00
timer:  optical           1       7.536       7.536     0.08
  

elaps: ELAPSED times:
elaps:  Routine       Calls   Time/call    Tot.time        %
elaps:  siesta            1    1160.956    1160.956   100.00
elaps:  Setup             1       0.398       0.398     0.03
elaps:  bands             3      36.760     110.281     9.50
elaps:  writewave         1       0.002       0.002     0.00
elaps:  KSV_init          1       0.000       0.000     0.00
elaps:  IterMD            1    1049.258    1049.258    90.38
elaps:  hsparse           1       0.050       0.050     0.00
elaps:  overlap           1       0.527       0.527     0.05
elaps:  IterSCF           1    1025.835    1025.835    88.36
elaps:  kinefsm           2       0.275       0.549     0.05
elaps:  nlefsm            2       2.418       4.835     0.42
elaps:  DHSCF             2      19.013      38.027     3.28
elaps:  DHSCF1            1       0.139       0.139     0.01
elaps:  DHSCF2            1       5.329       5.329     0.46
elaps:  REORD            18       0.002       0.038     0.00
elaps:  POISON            3       0.468       1.404     0.12
elaps:  DHSCF3            2      12.335      24.670     2.12
elaps:  rhoofd            2       4.005       8.010     0.69
elaps:  cellXC            2       0.446       0.893     0.08
elaps:  vmat              2       6.287      12.574     1.08
elaps:  MolMec            2       0.000       0.000     0.00
elaps:  diagon            1    1003.236    1003.236    86.41
elaps:  c-eigval        473       0.910     430.618    37.09
elaps:  c-buildHS       473       0.029      13.519     1.16
elaps:  cdiag           825       0.908     748.745    64.49
elaps:  cdiag1          825       0.058      48.055     4.14
elaps:  cdiag2          825       0.249     205.041    17.66
elaps:  cdiag3          825       0.524     432.477    37.25
elaps:  cdiag4          825       0.027      22.653     1.95
elaps:  c-eigvec        352       0.955     336.032    28.94
elaps:  c-buildD        352       0.984     346.203    29.82
elaps:  DHSCF4            1       7.864       7.864     0.68
elaps:  dfscf             1       7.385       7.385     0.64
elaps:  overfsm           1       0.051       0.051     0.00
elaps:  optical           1       0.000       0.000     0.00
  
>> End of run:   8-DEC-2015  15:17:57
