Siesta Version:                                        siesta-3.2-pl-3
Architecture  : x86_64-unknown-linux-gnu--unknown
Compiler flags: mpiifort -g -O2 -fPIC -xSSE4.1 -fp-model source -shared-intel 
PARALLEL version

* Running on    8 nodes in parallel
>> Start of run:   9-DEC-2015  17:13:01

                           ***********************       
                           *  WELCOME TO SIESTA  *       
                           ***********************       

reinit: Reading from standard input
************************** Dump of input data file ****************************
#(1) General system descriptors
SystemName            GRP_doping    # Descriptive name of the system
SystemLabel           GRP_doping    # Short name for naming files
%include STRUCT.fdf
%include KPT.fdf
%include BASIS.fdf
#%include TS.fdf # for transiesta calculation
#(4) DFT, Grid, SCF
XC.functional         GGA           # LDA or GGA (default = LDA)
XC.authors            PBE           # CA (Ceperley-Aldr) = PZ
                                    #    (Perdew-Zunger) - LDA - Default
                                    # PW92 (Perdew-Wang-92) - LDA
                                    # PBE (Perdew-Burke-Ernzerhof) - GGA
MeshCutoff            200.000000    Ry      # Default: 50.0 Ry ~ 0.444 Bohr
                                    #         100.0 Ry ~ 0.314 Bohr
MaxSCFIterations      500           # Default: 50
DM.MixingWeight       0.05          # Default: 0.25
DM.NumberPulay        10            # Default: 0
DM.PulayOnFile        F             # SystemLabel.P1, SystemLabel.P2
DM.Tolerance          1.d-4         # Default: 1.d-4
DM.UseSaveDM          .true.        # because of the bug
SCFMustConverge       .true.
NeglNonOverlapInt     F             # Default: F
#(5) Eigenvalue problem: order-N or diagonalization
SolutionMethod        Diagon        # or Transiesta
ElectronicTemperature 300.0 K       # Default: 300.0 K
#(6) Molecular dynamics and relaxations
#MD.TypeOfRun          CG            # Type of dynamics:
#MD.VariableCell       F
#MD.NumCGsteps         0           # 0 for single-point / 100 for gopt
#MD.MaxCGDispl         0.2 Bohr      # Default: 0.2 Bohr
#MD.MaxForceTol        0.02 eV/Ang   # Default: 0.04 eV/Ang
#MD.MaxStressTol       1.0 GPa       # Default: 1.0 GPa
# Geometry Constraints
#%block GeometryConstraints
#	position from 1 to 44
#%endblock GeometryConstraints
BandLinesScale   pi/a
%block BandLines
 1   0.00000000  0.00000000  0.00000000
50   0.00000000  0.07809418  0.00000000
50   0.04509075  0.07809242  0.00000000
20   0.00000000  0.00000000  0.00000000
%endblock BandLines
************************** End of input data file *****************************

reinit: -----------------------------------------------------------------------
reinit: System Name: GRP_doping
reinit: -----------------------------------------------------------------------
reinit: System Label: GRP_doping                                                  
reinit: -----------------------------------------------------------------------

initatom: Reading input for the pseudopotentials and atomic orbitals ----------
 Species number:            1  Label: C Atomic number:           6
 Species number:            2  Label: N Atomic number:           7
Ground state valence configuration:   2s02  2p02
Reading pseudopotential information in formatted form from C.psf

Valence configuration for pseudopotential generation:
2s( 2.00) rc: 1.54
2p( 2.00) rc: 1.54
3d( 0.00) rc: 1.54
4f( 0.00) rc: 1.54
Ground state valence configuration:   2s02  2p03
Reading pseudopotential information in formatted form from N.psf

Valence configuration for pseudopotential generation:
2s( 2.00) rc: 1.48
2p( 3.00) rc: 1.48
3d( 0.00) rc: 1.48
4f( 0.00) rc: 1.48
For C, standard SIESTA heuristics set lmxkb to 3
 (one more than the basis l, including polarization orbitals).
Use PS.lmax or PS.KBprojectors blocks to override.
For N, standard SIESTA heuristics set lmxkb to 3
 (one more than the basis l, including polarization orbitals).
Use PS.lmax or PS.KBprojectors blocks to override.

<basis_specs>
===============================================================================
C                    Z=   6    Mass=  12.010        Charge= 0.17977+309
Lmxo=1 Lmxkb= 3    BasisType=split      Semic=F
L=0  Nsemic=0  Cnfigmx=2
          n=1  nzeta=2  polorb=0
            splnorm:   0.15000    
               vcte:    0.0000    
               rinn:    0.0000    
                rcs:    0.0000      0.0000    
            lambdas:    1.0000      1.0000    
L=1  Nsemic=0  Cnfigmx=2
          n=1  nzeta=2  polorb=1
            splnorm:   0.15000    
               vcte:    0.0000    
               rinn:    0.0000    
                rcs:    0.0000      0.0000    
            lambdas:    1.0000      1.0000    
-------------------------------------------------------------------------------
L=0  Nkbl=1  erefs: 0.17977+309
L=1  Nkbl=1  erefs: 0.17977+309
L=2  Nkbl=1  erefs: 0.17977+309
L=3  Nkbl=1  erefs: 0.17977+309
===============================================================================
</basis_specs>

atom: Called for C                     (Z =   6)

read_vps: Pseudopotential generation method:
read_vps: ATM3      Troullier-Martins                       
Total valence charge:    4.00000

read_vps: Pseudopotential includes a core correction:
read_vps: Pseudo-core for xc-correction

xc_check: Exchange-correlation functional:
xc_check: GGA Perdew, Burke & Ernzerhof 1996
V l=0 = -2*Zval/r beyond r=  1.5227
V l=1 = -2*Zval/r beyond r=  1.5227
V l=2 = -2*Zval/r beyond r=  1.5227
V l=3 = -2*Zval/r beyond r=  1.5038
All V_l potentials equal beyond r=  1.5227
This should be close to max(r_c) in ps generation
All pots = -2*Zval/r beyond r=  1.5227

VLOCAL1: 99.0% of the norm of Vloc inside     18.722 Ry
VLOCAL1: 99.9% of the norm of Vloc inside     42.668 Ry
atom: Maximum radius for 4*pi*r*r*local-pseudopot. charge    1.83678
atom: Maximum radius for r*vlocal+2*Zval:    1.58088
GHOST: No ghost state for L =  0
GHOST: No ghost state for L =  1
GHOST: No ghost state for L =  2
GHOST: No ghost state for L =  3

KBgen: Kleinman-Bylander projectors: 
   l= 0   rc=  1.704034   el= -1.009801   Ekb=  5.335044   kbcos=  0.316824
   l= 1   rc=  1.704034   el= -0.388707   Ekb= -3.785862   kbcos= -0.366464
   l= 2   rc=  1.791422   el=  0.001971   Ekb= -0.970471   kbcos= -0.009212
   l= 3   rc=  1.859892   el=  0.003065   Ekb= -0.399525   kbcos= -0.001223

KBgen: Total number of  Kleinman-Bylander projectors:   16
atom: -------------------------------------------------------------------------

atom: SANKEY-TYPE ORBITALS:
atom: Selected multiple-zeta basis: split     

SPLIT: Orbitals with angular momentum L= 0

SPLIT: Basis orbitals for state 2s

SPLIT: PAO cut-off radius determined from an
SPLIT: energy shift=  0.007350 Ry

   izeta = 1
                 lambda =    1.000000
                     rc =    4.632753
                 energy =   -1.002270
                kinetic =    0.855760
    potential(screened) =   -1.858031
       potential(ionic) =   -5.417575

   izeta = 2
                 rmatch =    3.431921
              splitnorm =    0.150000
                 energy =   -0.867111
                kinetic =    1.300804
    potential(screened) =   -2.167915
       potential(ionic) =   -5.962684

SPLIT: Orbitals with angular momentum L= 1

SPLIT: Basis orbitals for state 2p

SPLIT: PAO cut-off radius determined from an
SPLIT: energy shift=  0.007350 Ry

   izeta = 1
                 lambda =    1.000000
                     rc =    5.658549
                 energy =   -0.381140
                kinetic =    2.399701
    potential(screened) =   -2.780841
       potential(ionic) =   -6.206085

   izeta = 2
                 rmatch =    3.653288
              splitnorm =    0.150000
                 energy =   -0.249149
                kinetic =    3.542762
    potential(screened) =   -3.791911
       potential(ionic) =   -7.581078

POLgen: Perturbative polarization orbital with L=  2

POLgen: Polarization orbital for state 2p

   izeta = 1
                     rc =    5.658549
                 energy =    1.109913
                kinetic =    2.304789
    potential(screened) =   -1.194876
       potential(ionic) =   -4.013592
atom: Total number of Sankey-type orbitals: 13

atm_pop: Valence configuration (for local Pseudopot. screening):
 2s( 2.00)                                                            
 2p( 2.00)                                                            
Vna: chval, zval:    4.00000   4.00000

Vna:  Cut-off radius for the neutral-atom potential:   5.658549
comcore: Pseudo-core radius Rcore=  1.791422

atom: _________________________________________________________________________

<basis_specs>
===============================================================================
N                    Z=   7    Mass=  14.010        Charge= 0.17977+309
Lmxo=1 Lmxkb= 3    BasisType=split      Semic=F
L=0  Nsemic=0  Cnfigmx=2
          n=1  nzeta=2  polorb=0
            splnorm:   0.15000    
               vcte:    0.0000    
               rinn:    0.0000    
                rcs:    0.0000      0.0000    
            lambdas:    1.0000      1.0000    
L=1  Nsemic=0  Cnfigmx=2
          n=1  nzeta=2  polorb=1
            splnorm:   0.15000    
               vcte:    0.0000    
               rinn:    0.0000    
                rcs:    0.0000      0.0000    
            lambdas:    1.0000      1.0000    
-------------------------------------------------------------------------------
L=0  Nkbl=1  erefs: 0.17977+309
L=1  Nkbl=1  erefs: 0.17977+309
L=2  Nkbl=1  erefs: 0.17977+309
L=3  Nkbl=1  erefs: 0.17977+309
===============================================================================
</basis_specs>

atom: Called for N                     (Z =   7)

read_vps: Pseudopotential generation method:
read_vps: ATM3      Troullier-Martins                       
Total valence charge:    5.00000

read_vps: Pseudopotential includes a core correction:
read_vps: Pseudo-core for xc-correction

xc_check: Exchange-correlation functional:
xc_check: GGA Perdew, Burke & Ernzerhof 1996
V l=0 = -2*Zval/r beyond r=  1.4606
V l=1 = -2*Zval/r beyond r=  1.4606
V l=2 = -2*Zval/r beyond r=  1.4606
V l=3 = -2*Zval/r beyond r=  1.4606
All V_l potentials equal beyond r=  1.4606
This should be close to max(r_c) in ps generation
All pots = -2*Zval/r beyond r=  1.4606

VLOCAL1: 99.0% of the norm of Vloc inside     20.347 Ry
VLOCAL1: 99.9% of the norm of Vloc inside     46.372 Ry
atom: Maximum radius for 4*pi*r*r*local-pseudopot. charge    1.76189
atom: Maximum radius for r*vlocal+2*Zval:    1.53550
GHOST: No ghost state for L =  0
GHOST: No ghost state for L =  1
GHOST: No ghost state for L =  2
GHOST: No ghost state for L =  3

KBgen: Kleinman-Bylander projectors: 
   l= 0   rc=  1.634559   el= -1.363963   Ekb=  5.296955   kbcos=  0.335621
   l= 1   rc=  1.614250   el= -0.521451   Ekb= -5.259161   kbcos= -0.433408
   l= 2   rc=  1.718383   el=  0.001991   Ekb= -1.271464   kbcos= -0.007566
   l= 3   rc=  1.761893   el=  0.003093   Ekb= -0.494769   kbcos= -0.001015

KBgen: Total number of  Kleinman-Bylander projectors:   16
atom: -------------------------------------------------------------------------

atom: SANKEY-TYPE ORBITALS:
atom: Selected multiple-zeta basis: split     

SPLIT: Orbitals with angular momentum L= 0

SPLIT: Basis orbitals for state 2s

SPLIT: PAO cut-off radius determined from an
SPLIT: energy shift=  0.007350 Ry

   izeta = 1
                 lambda =    1.000000
                     rc =    4.071465
                 energy =   -1.356470
                kinetic =    1.176977
    potential(screened) =   -2.533447
       potential(ionic) =   -8.057990

   izeta = 2
                 rmatch =    2.905100
              splitnorm =    0.150000
                 energy =   -1.158343
                kinetic =    1.813009
    potential(screened) =   -2.971352
       potential(ionic) =   -8.901931

SPLIT: Orbitals with angular momentum L= 1

SPLIT: Basis orbitals for state 2p

SPLIT: PAO cut-off radius determined from an
SPLIT: energy shift=  0.007350 Ry

   izeta = 1
                 lambda =    1.000000
                     rc =    4.972977
                 energy =   -0.513884
                kinetic =    3.441732
    potential(screened) =   -3.955616
       potential(ionic) =   -9.287901

   izeta = 2
                 rmatch =    3.054066
              splitnorm =    0.150000
                 energy =   -0.318226
                kinetic =    5.125348
    potential(screened) =   -5.443573
       potential(ionic) =  -11.380999

POLgen: Perturbative polarization orbital with L=  2

POLgen: Polarization orbital for state 2p

   izeta = 1
                     rc =    4.972977
                 energy =    1.607437
                kinetic =    3.268125
    potential(screened) =   -1.660688
       potential(ionic) =   -5.973652
atom: Total number of Sankey-type orbitals: 13

atm_pop: Valence configuration (for local Pseudopot. screening):
 2s( 2.00)                                                            
 2p( 3.00)                                                            
Vna: chval, zval:    5.00000   5.00000

Vna:  Cut-off radius for the neutral-atom potential:   4.972977
comcore: Pseudo-core radius Rcore=  1.554824

atom: _________________________________________________________________________

prinput: Basis input ----------------------------------------------------------

PAO.BasisType split     

%block ChemicalSpeciesLabel
    1    6 C                       # Species index, atomic number, species label
    2    7 N                       # Species index, atomic number, species label
%endblock ChemicalSpeciesLabel

%block PAO.Basis                 # Define Basis set
C                     2                    # Species label, number of l-shells
 n=2   0   2                         # n, l, Nzeta 
   4.633      3.432   
   1.000      1.000   
 n=2   1   2 P   1                   # n, l, Nzeta, Polarization, NzetaPol
   5.659      3.653   
   1.000      1.000   
N                     2                    # Species label, number of l-shells
 n=2   0   2                         # n, l, Nzeta 
   4.071      2.905   
   1.000      1.000   
 n=2   1   2 P   1                   # n, l, Nzeta, Polarization, NzetaPol
   4.973      3.054   
   1.000      1.000   
%endblock PAO.Basis

prinput: ----------------------------------------------------------------------

coor:   Atomic-coordinates input format  =     Cartesian coordinates
coor:                                          (in Angstroms)

siesta: Atomic coordinates (Bohr) and species
siesta:      2.23554   1.32097   0.00000  1        1
siesta:      4.56367   2.66461   0.00000  1        2
siesta:     32.50328  21.48508   0.00000  1        3
siesta:     34.83141  22.82873   0.00000  1        4
siesta:     34.83116  17.45226   0.00000  1        5
siesta:     37.15930  18.79590   0.00000  1        6
siesta:     32.50291  13.41944   0.00000  1        7
siesta:     34.83104  14.76308   0.00000  1        8
siesta:     30.17465   9.38661   0.00000  1        9
siesta:     32.50278  10.73026   0.00000  1       10
siesta:     27.84639   5.35379   0.00000  1       11
siesta:     30.17453   6.69743   0.00000  1       12
siesta:     27.84714  21.48508   0.00000  1       13
siesta:     30.17527  22.82873   0.00000  1       14
siesta:      6.89168   1.32097   0.00000  1       15
siesta:      9.21981   2.66461   0.00000  1       16
siesta:     11.54782   1.32097   0.00000  1       17
siesta:     13.87595   2.66461   0.00000  1       18
siesta:     16.20396   1.32097   0.00000  1       19
siesta:     18.53210   2.66461   0.00000  1       20
siesta:     20.86199   1.32097   0.00000  1       21
siesta:     23.19013   2.66461   0.00000  1       22
siesta:     25.51813   1.32097   0.00000  1       23
siesta:     27.84627   2.66461   0.00000  1       24
siesta:      4.56380   5.35379   0.00000  1       25
siesta:      6.89193   6.69743   0.00000  1       26
siesta:      9.21994   5.35379   0.00000  1       27
siesta:     11.54807   6.69743   0.00000  1       28
siesta:     13.87608   5.35379   0.00000  1       29
siesta:     16.20421   6.69743   0.00000  1       30
siesta:     20.86224   6.69743   0.00000  1       31
siesta:     23.19025   5.35379   0.00000  1       32
siesta:     25.51838   6.69743   0.00000  1       33
siesta:      6.89205   9.38661   0.00000  1       34
siesta:      9.22019  10.73026   0.00000  1       35
siesta:     11.54820   9.38661   0.00000  1       36
siesta:     13.87633  10.73026   0.00000  1       37
siesta:     16.20434   9.38661   0.00000  1       38
siesta:     18.53247  10.73026   0.00000  1       39
siesta:     20.86237   9.38661   0.00000  1       40
siesta:      9.22031  13.41944   0.00000  1       41
siesta:     11.54845  14.76308   0.00000  1       42
siesta:     13.87645  13.41944   0.00000  1       43
siesta:     16.20459  14.76308   0.00000  1       44
siesta:     18.53448  13.41944   0.00000  1       45
siesta:     20.86262  14.76308   0.00000  1       46
siesta:     11.54857  17.45226   0.00000  1       47
siesta:     13.87670  18.79590   0.00000  1       48
siesta:     16.20471  17.45226   0.00000  1       49
siesta:     18.53284  18.79590   0.00000  1       50
siesta:     13.87683  21.48508   0.00000  1       51
siesta:     16.20496  22.82873   0.00000  1       52
siesta:     18.53486  21.48508   0.00000  1       53
siesta:     20.86299  22.82873   0.00000  1       54
siesta:     25.51851   9.38661   0.00000  1       55
siesta:     27.84664  10.73026   0.00000  1       56
siesta:     23.19063  13.41944   0.00000  1       57
siesta:     25.51876  14.76308   0.00000  1       58
siesta:     20.86274  17.45226   0.00000  1       59
siesta:     23.19088  18.79590   0.00000  1       60
siesta:     27.84677  13.41944   0.00000  1       61
siesta:     30.17490  14.76308   0.00000  1       62
siesta:     27.84702  18.79590   0.00000  1       63
siesta:     23.19100  21.48508   0.00000  1       64
siesta:     25.51913  22.82873   0.00000  1       65
siesta:     30.17503  17.45226   0.00000  1       66
siesta:     32.50316  18.79590   0.00000  1       67
siesta:     37.16131  21.48508   0.00000  1       68
siesta:     39.48945  22.82873   0.00000  1       69
siesta:     18.53411   5.35379   0.00000  2       70
siesta:     23.19050  10.73026   0.00000  2       71
siesta:     25.51888  17.45226   0.00000  2       72

siesta: System type = slab      

initatomlists: Number of atoms, orbitals, and projectors:     72   936  1152

siesta: ******************** Simulation parameters ****************************
siesta:
siesta: The following are some of the parameters of the simulation.
siesta: A complete list of the parameters used, including default values,
siesta: can be found in file out.fdf
siesta:
redata: Non-Collinear-spin run           =     F
redata: SpinPolarized (Up/Down) run      =     F
redata: Number of spin components        =     1
redata: Long output                      =     F
redata: Number of Atomic Species         =        2
redata: Charge density info will appear in .RHO file
redata: Write Mulliken Pop.              =     NO
redata: Mesh Cutoff                      =   200.0000  Ry
redata: Net charge of the system         =     0.0000 |e|
redata: Max. number of SCF Iter          =      500
redata: SCF convergence failure will abort job
redata: Performing Pulay mixing using    =    10 iterations
redata: Mix DM in first SCF step ?       =     F
redata: Write Pulay info on disk?        =     F
redata: Discard 1st Pulay DM after  kick =     F
redata: New DM Mixing Weight             =     0.0500
redata: New DM Occupancy tolerance       = 0.000000000001
redata: No kicks to SCF
redata: DM Mixing Weight for Kicks       =     0.5000
redata: DM Tolerance for SCF             =     0.000100
redata: Require Energy convergence for SCF =     F
redata: DM Energy tolerance for SCF      =     0.000100 eV
redata: Require Harris convergence for SCF =     F
redata: DM Harris energy tolerance for SCF =     0.000100 eV
redata: Using Saved Data (generic)   =     F
redata: Use continuation files for DM    =     T
redata: Neglect nonoverlap interactions  =     F
redata: Method of Calculation            =     Diagonalization
redata: Divide and Conquer               =     T
redata: Electronic Temperature           =     0.0019  Ry
redata: Fix the spin of the system       =     F
redata: Dynamics option                  =     Verlet MD run
redata: Initial MD time step             =        1
redata:   Final MD time step             =        1
redata: Length of MD time step           =     1.0000  fs
redata: Initial Temperature of MD run    =     0.0000  K
redata: Perform a MD quench              =     F
redata: ***********************************************************************
Total number of electrons:   291.000000
Total ionic charge:   291.000000

* ProcessorY, Blocksize:    2  24

k-point displ. along   1 input, could be:     0.00    0.50
k-point displ. along   2 input, could be:     0.00    0.50
 Kpoints in:          364 . Kpoints trimmed:          352

siesta: k-grid: Number of k-points =   352
siesta: k-grid: Cutoff (effective) =     5.000 Ang
siesta: k-grid: Supercell and displacements
siesta: k-grid:   26   0   0      0.000
siesta: k-grid:    0  26   0      0.000
siesta: k-grid:    0   0   1      0.000
Naive supercell factors:     2    2    2

superc: Internal auxiliary supercell:     2 x     2 x     2  =       8
superc: Number of atoms, orbitals, and projectors:    576   7488   9216

* Maximum dynamic memory allocated =     6 MB

siesta:                 ==============================
                            Begin MD step =      1
                        ==============================

superc: Internal auxiliary supercell:     2 x     2 x     2  =       8
superc: Number of atoms, orbitals, and projectors:    576   7488   9216

outcell: Unit cell vectors (Ang):
       14.785000    0.000000    0.000000
        7.393000   12.805052    0.000000
        0.000000    0.000000   10.000000

outcell: Cell vector modules (Ang)   :   14.785000   14.786000   10.000000
outcell: Cell angles (23,13,12) (deg):     90.0000     90.0000     60.0000
outcell: Cell volume (Ang**3)        :   1893.2269
New_DM. Step:     1
Initializing Density Matrix...

iodm: Reading Density Matrix from files

InitMesh: MESH =   120 x   120 x    90 =     1296000
InitMesh: Mesh cutoff (required, used) =   200.000   223.865 Ry

* Maximum dynamic memory allocated =   193 MB

stepf: Fermi-Dirac step function

siesta: Program's energy decomposition (eV):
siesta: Ebs     =     -4018.730336
siesta: Eions   =     18885.251604
siesta: Ena     =      4005.451769
siesta: Ekin    =      8082.042845
siesta: Enl     =      -881.682509
siesta: DEna    =      -273.669403
siesta: DUscf   =        24.236085
siesta: DUext   =         0.000000
siesta: Exc     =     -4109.557547
siesta: eta*DQ  =         0.000000
siesta: Emadel  =         0.000000
siesta: Emeta   =         0.000000
siesta: Emolmec =         0.000000
siesta: Ekinion =         0.000000
siesta: Eharris =    -12038.439732
siesta: Etot    =    -12038.430364
siesta: FreeEng =    -12038.430364

siesta: iscf   Eharris(eV)      E_KS(eV)   FreeEng(eV)   dDmax  Ef(eV)
siesta:    1   -12038.4397   -12038.4304   -12038.4304  0.0000 -3.7227
timer: Routine,Calls,Time,% = IterSCF        1    8074.937  99.85
elaps: Routine,Calls,Wall,% = IterSCF        1    1010.983  99.85

siesta: E_KS(eV) =           -12038.4397

siesta: E_KS - E_eggbox =    -12038.4397

siesta: Atomic forces (eV/Ang):
----------------------------------------
   Tot    0.211048   -0.282580    0.000000
----------------------------------------
   Max    0.763539
   Res    0.212467    sqrt( Sum f_i^2 / 3N )
----------------------------------------
   Max    0.763539    constrained

Stress-tensor-Voigt (kbar):      -24.52      -23.38        0.05        0.01        0.00        0.00
(Free)E + p*V (eV/cell)   -12019.6142
Target enthalpy (eV/cell)   -12038.4589

siesta: Stress tensor (static) (eV/Ang**3):
        -0.015301    0.000007    0.000000
         0.000007   -0.014594    0.000000
         0.000000    0.000000    0.000033

siesta: Pressure (static):         15.94788730  kBar

siesta: Stress tensor (total) (eV/Ang**3):
        -0.015301    0.000007    0.000000
         0.000007   -0.014594    0.000000
         0.000000    0.000000    0.000033

siesta: Pressure (total):         15.94788730  kBar

siesta: Temp_ion =       0.000 K

* Maximum dynamic memory allocated =   206 MB
Computing bands...

siesta: Program's energy decomposition (eV):
siesta: Ebs     =     -4018.730336
siesta: Eions   =     18885.251604
siesta: Ena     =      4005.451769
siesta: Ekin    =      8082.036345
siesta: Enl     =      -881.681728
siesta: DEna    =      -273.672897
siesta: DUscf   =        24.237156
siesta: DUext   =         0.000000
siesta: Exc     =     -4109.558773
siesta: eta*DQ  =         0.000000
siesta: Emadel  =         0.000000
siesta: Emeta   =         0.000000
siesta: Emolmec =         0.000000
siesta: Ekinion =         0.000000
siesta: Eharris =    -12038.439732
siesta: Etot    =    -12038.439731
siesta: FreeEng =    -12038.458943

siesta: Final energy (eV):
siesta:  Band Struct. =   -4018.730336
siesta:       Kinetic =    8082.036345
siesta:       Hartree =   23673.620312
siesta:    Ext. field =       0.000000
siesta:   Exch.-corr. =   -4109.558773
siesta:  Ion-electron =  -54822.755300
siesta:       Ion-ion =   15138.217683
siesta:       Ekinion =       0.000000
siesta:         Total =  -12038.439731

siesta: Atomic forces (eV/Ang):
siesta:      1   -0.049115   -0.036945    0.000000
siesta:      2   -0.008109    0.077689    0.000000
siesta:      3   -0.084528    0.047152    0.000000
siesta:      4   -0.110244    0.072622    0.000000
siesta:      5    0.031185   -0.009250    0.000000
siesta:      6   -0.107873    0.074579    0.000000
siesta:      7   -0.009057    0.035344    0.000000
siesta:      8   -0.001159   -0.024201    0.000000
siesta:      9    0.020782   -0.230279    0.000000
siesta:     10    0.011907   -0.003320    0.000000
siesta:     11    0.203261    0.085675    0.000000
siesta:     12   -0.128933    0.078518    0.000000
siesta:     13   -0.451783   -0.256923    0.000000
siesta:     14    0.423518   -0.221478    0.000000
siesta:     15    0.178321    0.058272    0.000000
siesta:     16   -0.301226    0.170898    0.000000
siesta:     17    0.295835   -0.195548    0.000000
siesta:     18   -0.139863   -0.178407    0.000000
siesta:     19    0.001407    0.492663    0.000000
siesta:     20    0.240824    0.495263    0.000000
siesta:     21   -0.441327    0.302367    0.000000
siesta:     22    0.305178    0.413685    0.000000
siesta:     23   -0.040825   -0.040134    0.000000
siesta:     24    0.012751   -0.002057    0.000000
siesta:     25    0.158577   -0.101930    0.000000
siesta:     26   -0.074818   -0.031091    0.000000
siesta:     27    0.012452   -0.201968    0.000000
siesta:     28    0.069190    0.274201    0.000000
siesta:     29    0.432422   -0.124119    0.000000
siesta:     30    0.575867   -0.319057    0.000000
siesta:     31   -0.299205    0.258972    0.000000
siesta:     32   -0.431069   -0.731898    0.000000
siesta:     33   -0.333286    0.690814    0.000000
siesta:     34   -0.018111    0.026243    0.000000
siesta:     35   -0.109634    0.108711    0.000000
siesta:     36    0.128415   -0.110734    0.000000
siesta:     37   -0.188087   -0.156018    0.000000
siesta:     38    0.396481   -0.556326    0.000000
siesta:     39    0.581602    0.289750    0.000000
siesta:     40    0.038650   -0.173473    0.000000
siesta:     41   -0.067233   -0.102479    0.000000
siesta:     42    0.062983    0.041154    0.000000
siesta:     43    0.054274    0.060908    0.000000
siesta:     44   -0.005125    0.014110    0.000000
siesta:     45   -0.023530   -0.005823    0.000000
siesta:     46    0.009770   -0.616741    0.000000
siesta:     47    0.070425   -0.051926    0.000000
siesta:     48   -0.003716   -0.073302    0.000000
siesta:     49   -0.031692   -0.085007    0.000000
siesta:     50    0.081751    0.234969    0.000000
siesta:     51    0.081015    0.088200    0.000000
siesta:     52   -0.107586    0.056611    0.000000
siesta:     53    0.113264   -0.056737    0.000000
siesta:     54   -0.207530   -0.174883    0.000000
siesta:     55   -0.312049    0.168213    0.000000
siesta:     56   -0.763539   -0.052833    0.000000
siesta:     57    0.184171    0.024858    0.000000
siesta:     58   -0.372848    0.128691    0.000000
siesta:     59    0.644521   -0.067659    0.000000
siesta:     60    0.551768   -0.309433    0.000000
siesta:     61    0.415575    0.729689    0.000000
siesta:     62   -0.212215   -0.476552    0.000000
siesta:     63   -0.337505   -0.425369    0.000000
siesta:     64    0.312641   -0.313450    0.000000
siesta:     65    0.079592    0.231593    0.000000
siesta:     66   -0.484617    0.181371    0.000000
siesta:     67   -0.119409    0.101964    0.000000
siesta:     68   -0.021309   -0.020357    0.000000
siesta:     69   -0.014961    0.051343    0.000000
siesta:     70   -0.205312    0.130483    0.000000
siesta:     71    0.255836   -0.105555    0.000000
siesta:     72   -0.206734    0.063106    0.000000
siesta: ----------------------------------------
siesta:    Tot    0.211048   -0.282580    0.000000

siesta: Stress tensor (static) (eV/Ang**3):
siesta:    -0.015301    0.000007    0.000000
siesta:     0.000007   -0.014594    0.000000
siesta:     0.000000    0.000000    0.000033

siesta: Cell volume =       1893.226895 Ang**3

siesta: Pressure (static):
siesta:                Solid            Molecule  Units
siesta:           0.00010841          0.00015888  Ry/Bohr**3
siesta:           0.00995378          0.01458802  eV/Ang**3
siesta:          15.94788730         23.37283459  kBar
(Free)E+ p_basis*V_orbitals  =      -12008.150215
(Free)Eharris+ p_basis*V_orbitals  =      -12008.159583

siesta: Electric dipole (a.u.)  =    0.000000    0.000000    0.000000
siesta: Electric dipole (Debye) =    0.000000    0.000000    0.000000

* Maximum dynamic memory allocated : Node    0 =   206 MB
* Maximum dynamic memory allocated : Node    1 =    74 MB
* Maximum dynamic memory allocated : Node    2 =    76 MB
* Maximum dynamic memory allocated : Node    3 =   195 MB
* Maximum dynamic memory allocated : Node    4 =   206 MB
* Maximum dynamic memory allocated : Node    5 =    74 MB
* Maximum dynamic memory allocated : Node    6 =    76 MB
* Maximum dynamic memory allocated : Node    7 =   190 MB

* Maximum memory occured during matrixMtoO                    

timer: CPU execution times:
timer:  Routine       Calls   Time/call    Tot.time        %
timer:  siesta            1    9144.146    9144.146   100.00
timer:  Setup             1       3.156       3.156     0.03
timer:  bands             3     292.496     877.489     9.60
timer:  writewave         1       0.019       0.019     0.00
timer:  KSV_init          1       0.002       0.002     0.00
timer:  IterMD            1    8254.901    8254.901    90.28
timer:  hsparse           1       0.267       0.267     0.00
timer:  overlap           1       5.013       5.013     0.05
timer:  IterSCF           1    8074.937    8074.937    88.31
timer:  kinefsm           2       2.604       5.207     0.06
timer:  nlefsm            2      19.368      38.735     0.42
timer:  DHSCF             2     130.180     260.360     2.85
timer:  DHSCF1            1       0.824       0.824     0.01
timer:  DHSCF2            1      35.138      35.138     0.38
timer:  REORD            18       0.016       0.280     0.00
timer:  POISON            3       3.699      11.097     0.12
timer:  DHSCF3            2      95.864     191.729     2.10
timer:  rhoofd            2      17.482      34.965     0.38
timer:  cellXC            2       3.588       7.176     0.08
timer:  vmat              2      49.359      98.717     1.08
timer:  MolMec            2       0.000       0.001     0.00
timer:  diagon            1    7905.791    7905.791    86.46
timer:  c-eigval        473       7.271    3439.355    37.61
timer:  c-buildHS       473       0.212     100.375     1.10
timer:  cdiag           825       7.366    6076.700    66.45
timer:  cdiag1          825       0.463     382.106     4.18
timer:  cdiag2          825       1.982    1635.443    17.89
timer:  cdiag3          825       4.188    3455.282    37.79
timer:  cdiag4          825       0.212     175.091     1.91
timer:  c-eigvec        352       7.871    2770.604    30.30
timer:  c-buildD        352       7.298    2568.913    28.09
timer:  DHSCF4            1      32.460      32.460     0.35
timer:  dfscf             1      30.616      30.616     0.33
timer:  overfsm           1       0.381       0.381     0.00
timer:  optical           1       7.513       7.513     0.08
  

elaps: ELAPSED times:
elaps:  Routine       Calls   Time/call    Tot.time        %
elaps:  siesta            1    1144.778    1144.778   100.00
elaps:  Setup             1       0.394       0.394     0.03
elaps:  bands             3      36.623     109.868     9.60
elaps:  writewave         1       0.002       0.002     0.00
elaps:  KSV_init          1       0.000       0.000     0.00
elaps:  IterMD            1    1033.500    1033.500    90.28
elaps:  hsparse           1       0.032       0.032     0.00
elaps:  overlap           1       0.519       0.519     0.05
elaps:  IterSCF           1    1010.983    1010.983    88.31
elaps:  kinefsm           2       0.273       0.547     0.05
elaps:  nlefsm            2       2.380       4.759     0.42
elaps:  DHSCF             2      17.914      35.829     3.13
elaps:  DHSCF1            1       0.098       0.098     0.01
elaps:  DHSCF2            1       4.408       4.408     0.39
elaps:  REORD            18       0.002       0.039     0.00
elaps:  POISON            3       0.465       1.394     0.12
elaps:  DHSCF3            2      11.993      23.986     2.10
elaps:  rhoofd            2       3.748       7.496     0.65
elaps:  cellXC            2       0.448       0.896     0.08
elaps:  vmat              2       6.176      12.351     1.08
elaps:  MolMec            2       0.000       0.000     0.00
elaps:  diagon            1     989.850     989.850    86.47
elaps:  c-eigval        473       0.910     430.417    37.60
elaps:  c-buildHS       473       0.028      13.211     1.15
elaps:  cdiag           825       0.909     749.578    65.48
elaps:  cdiag1          825       0.057      47.207     4.12
elaps:  cdiag2          825       0.248     204.643    17.88
elaps:  cdiag3          825       0.525     433.107    37.83
elaps:  cdiag4          825       0.028      23.039     2.01
elaps:  c-eigvec        352       0.958     337.224    29.46
elaps:  c-buildD        352       0.941     331.304    28.94
elaps:  DHSCF4            1       7.310       7.310     0.64
elaps:  dfscf             1       6.930       6.930     0.61
elaps:  overfsm           1       0.049       0.049     0.00
elaps:  optical           1       0.000       0.000     0.00
  
>> End of run:   9-DEC-2015  17:32:06
