Siesta Version:                                        siesta-3.2-pl-3
Architecture  : x86_64-unknown-linux-gnu--unknown
Compiler flags: mpiifort -g -O2 -fPIC -xSSE4.1 -fp-model source -shared-intel 
PARALLEL version

* Running on    8 nodes in parallel
>> Start of run:   5-DEC-2015   4:13:33

                           ***********************       
                           *  WELCOME TO SIESTA  *       
                           ***********************       

reinit: Reading from standard input
************************** Dump of input data file ****************************
#(1) General system descriptors
SystemName            GRP_doping    # Descriptive name of the system
SystemLabel           GRP_doping    # Short name for naming files
%include STRUCT.fdf
%include KPT.fdf
%include BASIS.fdf
#%include TS.fdf # for transiesta calculation
#(4) DFT, Grid, SCF
XC.functional         GGA           # LDA or GGA (default = LDA)
XC.authors            PBE           # CA (Ceperley-Aldr) = PZ
                                    #    (Perdew-Zunger) - LDA - Default
                                    # PW92 (Perdew-Wang-92) - LDA
                                    # PBE (Perdew-Burke-Ernzerhof) - GGA
MeshCutoff            200.000000    Ry      # Default: 50.0 Ry ~ 0.444 Bohr
                                    #         100.0 Ry ~ 0.314 Bohr
MaxSCFIterations      500           # Default: 50
DM.MixingWeight       0.05          # Default: 0.25
DM.NumberPulay        10            # Default: 0
DM.PulayOnFile        F             # SystemLabel.P1, SystemLabel.P2
DM.Tolerance          1.d-4         # Default: 1.d-4
DM.UseSaveDM          .true.        # because of the bug
SCFMustConverge       .true.
NeglNonOverlapInt     F             # Default: F
#(5) Eigenvalue problem: order-N or diagonalization
SolutionMethod        Diagon        # or Transiesta
ElectronicTemperature 300.0 K       # Default: 300.0 K
#(6) Molecular dynamics and relaxations
#MD.TypeOfRun          CG            # Type of dynamics:
#MD.VariableCell       F
#MD.NumCGsteps         0           # 0 for single-point / 100 for gopt
#MD.MaxCGDispl         0.2 Bohr      # Default: 0.2 Bohr
#MD.MaxForceTol        0.02 eV/Ang   # Default: 0.04 eV/Ang
#MD.MaxStressTol       1.0 GPa       # Default: 1.0 GPa
# Geometry Constraints
#%block GeometryConstraints
#	position from 1 to 44
#%endblock GeometryConstraints
************************** End of input data file *****************************

reinit: -----------------------------------------------------------------------
reinit: System Name: GRP_doping
reinit: -----------------------------------------------------------------------
reinit: System Label: GRP_doping                                                  
reinit: -----------------------------------------------------------------------

initatom: Reading input for the pseudopotentials and atomic orbitals ----------
 Species number:            1  Label: N Atomic number:           7
 Species number:            2  Label: C Atomic number:           6
Ground state valence configuration:   2s02  2p03
Reading pseudopotential information in formatted form from N.psf

Valence configuration for pseudopotential generation:
2s( 2.00) rc: 1.48
2p( 3.00) rc: 1.48
3d( 0.00) rc: 1.48
4f( 0.00) rc: 1.48
Ground state valence configuration:   2s02  2p02
Reading pseudopotential information in formatted form from C.psf

Valence configuration for pseudopotential generation:
2s( 2.00) rc: 1.54
2p( 2.00) rc: 1.54
3d( 0.00) rc: 1.54
4f( 0.00) rc: 1.54
For N, standard SIESTA heuristics set lmxkb to 3
 (one more than the basis l, including polarization orbitals).
Use PS.lmax or PS.KBprojectors blocks to override.
For C, standard SIESTA heuristics set lmxkb to 3
 (one more than the basis l, including polarization orbitals).
Use PS.lmax or PS.KBprojectors blocks to override.

<basis_specs>
===============================================================================
N                    Z=   7    Mass=  14.010        Charge= 0.17977+309
Lmxo=1 Lmxkb= 3    BasisType=split      Semic=F
L=0  Nsemic=0  Cnfigmx=2
          n=1  nzeta=2  polorb=0
            splnorm:   0.15000    
               vcte:    0.0000    
               rinn:    0.0000    
                rcs:    0.0000      0.0000    
            lambdas:    1.0000      1.0000    
L=1  Nsemic=0  Cnfigmx=2
          n=1  nzeta=2  polorb=1
            splnorm:   0.15000    
               vcte:    0.0000    
               rinn:    0.0000    
                rcs:    0.0000      0.0000    
            lambdas:    1.0000      1.0000    
-------------------------------------------------------------------------------
L=0  Nkbl=1  erefs: 0.17977+309
L=1  Nkbl=1  erefs: 0.17977+309
L=2  Nkbl=1  erefs: 0.17977+309
L=3  Nkbl=1  erefs: 0.17977+309
===============================================================================
</basis_specs>

atom: Called for N                     (Z =   7)

read_vps: Pseudopotential generation method:
read_vps: ATM3      Troullier-Martins                       
Total valence charge:    5.00000

read_vps: Pseudopotential includes a core correction:
read_vps: Pseudo-core for xc-correction

xc_check: Exchange-correlation functional:
xc_check: GGA Perdew, Burke & Ernzerhof 1996
V l=0 = -2*Zval/r beyond r=  1.4606
V l=1 = -2*Zval/r beyond r=  1.4606
V l=2 = -2*Zval/r beyond r=  1.4606
V l=3 = -2*Zval/r beyond r=  1.4606
All V_l potentials equal beyond r=  1.4606
This should be close to max(r_c) in ps generation
All pots = -2*Zval/r beyond r=  1.4606

VLOCAL1: 99.0% of the norm of Vloc inside     20.347 Ry
VLOCAL1: 99.9% of the norm of Vloc inside     46.372 Ry
atom: Maximum radius for 4*pi*r*r*local-pseudopot. charge    1.76189
atom: Maximum radius for r*vlocal+2*Zval:    1.53550
GHOST: No ghost state for L =  0
GHOST: No ghost state for L =  1
GHOST: No ghost state for L =  2
GHOST: No ghost state for L =  3

KBgen: Kleinman-Bylander projectors: 
   l= 0   rc=  1.634559   el= -1.363963   Ekb=  5.296955   kbcos=  0.335621
   l= 1   rc=  1.614250   el= -0.521451   Ekb= -5.259161   kbcos= -0.433408
   l= 2   rc=  1.718383   el=  0.001991   Ekb= -1.271464   kbcos= -0.007566
   l= 3   rc=  1.761893   el=  0.003093   Ekb= -0.494769   kbcos= -0.001015

KBgen: Total number of  Kleinman-Bylander projectors:   16
atom: -------------------------------------------------------------------------

atom: SANKEY-TYPE ORBITALS:
atom: Selected multiple-zeta basis: split     

SPLIT: Orbitals with angular momentum L= 0

SPLIT: Basis orbitals for state 2s

SPLIT: PAO cut-off radius determined from an
SPLIT: energy shift=  0.007350 Ry

   izeta = 1
                 lambda =    1.000000
                     rc =    4.071465
                 energy =   -1.356470
                kinetic =    1.176977
    potential(screened) =   -2.533447
       potential(ionic) =   -8.057990

   izeta = 2
                 rmatch =    2.905100
              splitnorm =    0.150000
                 energy =   -1.158343
                kinetic =    1.813009
    potential(screened) =   -2.971352
       potential(ionic) =   -8.901931

SPLIT: Orbitals with angular momentum L= 1

SPLIT: Basis orbitals for state 2p

SPLIT: PAO cut-off radius determined from an
SPLIT: energy shift=  0.007350 Ry

   izeta = 1
                 lambda =    1.000000
                     rc =    4.972977
                 energy =   -0.513884
                kinetic =    3.441732
    potential(screened) =   -3.955616
       potential(ionic) =   -9.287901

   izeta = 2
                 rmatch =    3.054066
              splitnorm =    0.150000
                 energy =   -0.318226
                kinetic =    5.125348
    potential(screened) =   -5.443573
       potential(ionic) =  -11.380999

POLgen: Perturbative polarization orbital with L=  2

POLgen: Polarization orbital for state 2p

   izeta = 1
                     rc =    4.972977
                 energy =    1.607437
                kinetic =    3.268125
    potential(screened) =   -1.660688
       potential(ionic) =   -5.973652
atom: Total number of Sankey-type orbitals: 13

atm_pop: Valence configuration (for local Pseudopot. screening):
 2s( 2.00)                                                            
 2p( 3.00)                                                            
Vna: chval, zval:    5.00000   5.00000

Vna:  Cut-off radius for the neutral-atom potential:   4.972977
comcore: Pseudo-core radius Rcore=  1.554824

atom: _________________________________________________________________________

<basis_specs>
===============================================================================
C                    Z=   6    Mass=  12.010        Charge= 0.17977+309
Lmxo=1 Lmxkb= 3    BasisType=split      Semic=F
L=0  Nsemic=0  Cnfigmx=2
          n=1  nzeta=2  polorb=0
            splnorm:   0.15000    
               vcte:    0.0000    
               rinn:    0.0000    
                rcs:    0.0000      0.0000    
            lambdas:    1.0000      1.0000    
L=1  Nsemic=0  Cnfigmx=2
          n=1  nzeta=2  polorb=1
            splnorm:   0.15000    
               vcte:    0.0000    
               rinn:    0.0000    
                rcs:    0.0000      0.0000    
            lambdas:    1.0000      1.0000    
-------------------------------------------------------------------------------
L=0  Nkbl=1  erefs: 0.17977+309
L=1  Nkbl=1  erefs: 0.17977+309
L=2  Nkbl=1  erefs: 0.17977+309
L=3  Nkbl=1  erefs: 0.17977+309
===============================================================================
</basis_specs>

atom: Called for C                     (Z =   6)

read_vps: Pseudopotential generation method:
read_vps: ATM3      Troullier-Martins                       
Total valence charge:    4.00000

read_vps: Pseudopotential includes a core correction:
read_vps: Pseudo-core for xc-correction

xc_check: Exchange-correlation functional:
xc_check: GGA Perdew, Burke & Ernzerhof 1996
V l=0 = -2*Zval/r beyond r=  1.5227
V l=1 = -2*Zval/r beyond r=  1.5227
V l=2 = -2*Zval/r beyond r=  1.5227
V l=3 = -2*Zval/r beyond r=  1.5038
All V_l potentials equal beyond r=  1.5227
This should be close to max(r_c) in ps generation
All pots = -2*Zval/r beyond r=  1.5227

VLOCAL1: 99.0% of the norm of Vloc inside     18.722 Ry
VLOCAL1: 99.9% of the norm of Vloc inside     42.668 Ry
atom: Maximum radius for 4*pi*r*r*local-pseudopot. charge    1.83678
atom: Maximum radius for r*vlocal+2*Zval:    1.58088
GHOST: No ghost state for L =  0
GHOST: No ghost state for L =  1
GHOST: No ghost state for L =  2
GHOST: No ghost state for L =  3

KBgen: Kleinman-Bylander projectors: 
   l= 0   rc=  1.704034   el= -1.009801   Ekb=  5.335044   kbcos=  0.316824
   l= 1   rc=  1.704034   el= -0.388707   Ekb= -3.785862   kbcos= -0.366464
   l= 2   rc=  1.791422   el=  0.001971   Ekb= -0.970471   kbcos= -0.009212
   l= 3   rc=  1.859892   el=  0.003065   Ekb= -0.399525   kbcos= -0.001223

KBgen: Total number of  Kleinman-Bylander projectors:   16
atom: -------------------------------------------------------------------------

atom: SANKEY-TYPE ORBITALS:
atom: Selected multiple-zeta basis: split     

SPLIT: Orbitals with angular momentum L= 0

SPLIT: Basis orbitals for state 2s

SPLIT: PAO cut-off radius determined from an
SPLIT: energy shift=  0.007350 Ry

   izeta = 1
                 lambda =    1.000000
                     rc =    4.632753
                 energy =   -1.002270
                kinetic =    0.855760
    potential(screened) =   -1.858031
       potential(ionic) =   -5.417575

   izeta = 2
                 rmatch =    3.431921
              splitnorm =    0.150000
                 energy =   -0.867111
                kinetic =    1.300804
    potential(screened) =   -2.167915
       potential(ionic) =   -5.962684

SPLIT: Orbitals with angular momentum L= 1

SPLIT: Basis orbitals for state 2p

SPLIT: PAO cut-off radius determined from an
SPLIT: energy shift=  0.007350 Ry

   izeta = 1
                 lambda =    1.000000
                     rc =    5.658549
                 energy =   -0.381140
                kinetic =    2.399701
    potential(screened) =   -2.780841
       potential(ionic) =   -6.206085

   izeta = 2
                 rmatch =    3.653288
              splitnorm =    0.150000
                 energy =   -0.249149
                kinetic =    3.542762
    potential(screened) =   -3.791911
       potential(ionic) =   -7.581078

POLgen: Perturbative polarization orbital with L=  2

POLgen: Polarization orbital for state 2p

   izeta = 1
                     rc =    5.658549
                 energy =    1.109913
                kinetic =    2.304789
    potential(screened) =   -1.194876
       potential(ionic) =   -4.013592
atom: Total number of Sankey-type orbitals: 13

atm_pop: Valence configuration (for local Pseudopot. screening):
 2s( 2.00)                                                            
 2p( 2.00)                                                            
Vna: chval, zval:    4.00000   4.00000

Vna:  Cut-off radius for the neutral-atom potential:   5.658549
comcore: Pseudo-core radius Rcore=  1.791422

atom: _________________________________________________________________________

prinput: Basis input ----------------------------------------------------------

PAO.BasisType split     

%block ChemicalSpeciesLabel
    1    7 N                       # Species index, atomic number, species label
    2    6 C                       # Species index, atomic number, species label
%endblock ChemicalSpeciesLabel

%block PAO.Basis                 # Define Basis set
N                     2                    # Species label, number of l-shells
 n=2   0   2                         # n, l, Nzeta 
   4.071      2.905   
   1.000      1.000   
 n=2   1   2 P   1                   # n, l, Nzeta, Polarization, NzetaPol
   4.973      3.054   
   1.000      1.000   
C                     2                    # Species label, number of l-shells
 n=2   0   2                         # n, l, Nzeta 
   4.633      3.432   
   1.000      1.000   
 n=2   1   2 P   1                   # n, l, Nzeta, Polarization, NzetaPol
   5.659      3.653   
   1.000      1.000   
%endblock PAO.Basis

prinput: ----------------------------------------------------------------------

coor:   Atomic-coordinates input format  =     Cartesian coordinates
coor:                                          (in Angstroms)

siesta: Atomic coordinates (Bohr) and species
siesta:      2.23554   1.32097   0.00000  1        1
siesta:     32.50328  21.48508   0.00000  1        2
siesta:     34.83141  22.82873   0.00000  1        3
siesta:     11.54782   1.32097   0.00000  1        4
siesta:     20.86199   1.32097   0.00000  1        5
siesta:      4.56380   5.35379   0.00000  1        6
siesta:      6.89193   6.69743   0.00000  1        7
siesta:     13.87608   5.35379   0.00000  1        8
siesta:     16.20421   6.69743   0.00000  1        9
siesta:     23.19025   5.35379   0.00000  1       10
siesta:     25.51838   6.69743   0.00000  1       11
siesta:      6.89205   9.38661   0.00000  1       12
siesta:     16.20434   9.38661   0.00000  1       13
siesta:      9.22031  13.41944   0.00000  1       14
siesta:     11.54845  14.76308   0.00000  1       15
siesta:     18.53448  13.41944   0.00000  1       16
siesta:     20.86262  14.76308   0.00000  1       17
siesta:     11.54857  17.45226   0.00000  1       18
siesta:     13.87683  21.48508   0.00000  1       19
siesta:     16.20496  22.82873   0.00000  1       20
siesta:     25.51851   9.38661   0.00000  1       21
siesta:     20.86274  17.45226   0.00000  1       22
siesta:     27.84677  13.41944   0.00000  1       23
siesta:     30.17490  14.76308   0.00000  1       24
siesta:     23.19100  21.48508   0.00000  1       25
siesta:     25.51913  22.82873   0.00000  1       26
siesta:     30.17503  17.45226   0.00000  1       27
siesta:      4.56367   2.66461   0.00000  2       28
siesta:     34.83116  17.45226   0.00000  2       29
siesta:     37.15930  18.79590   0.00000  2       30
siesta:     32.50291  13.41944   0.00000  2       31
siesta:     34.83104  14.76308   0.00000  2       32
siesta:     30.17465   9.38661   0.00000  2       33
siesta:     32.50278  10.73026   0.00000  2       34
siesta:     27.84639   5.35379   0.00000  2       35
siesta:     30.17453   6.69743   0.00000  2       36
siesta:     27.84714  21.48508   0.00000  2       37
siesta:     30.17527  22.82873   0.00000  2       38
siesta:      6.89168   1.32097   0.00000  2       39
siesta:      9.21981   2.66461   0.00000  2       40
siesta:     13.87595   2.66461   0.00000  2       41
siesta:     16.20396   1.32097   0.00000  2       42
siesta:     18.53210   2.66461   0.00000  2       43
siesta:     23.19013   2.66461   0.00000  2       44
siesta:     25.51813   1.32097   0.00000  2       45
siesta:     27.84627   2.66461   0.00000  2       46
siesta:      9.21994   5.35379   0.00000  2       47
siesta:     11.54807   6.69743   0.00000  2       48
siesta:     18.53411   5.35379   0.00000  2       49
siesta:     20.86224   6.69743   0.00000  2       50
siesta:      9.22019  10.73026   0.00000  2       51
siesta:     11.54820   9.38661   0.00000  2       52
siesta:     13.87633  10.73026   0.00000  2       53
siesta:     18.53247  10.73026   0.00000  2       54
siesta:     20.86237   9.38661   0.00000  2       55
siesta:     23.19050  10.73026   0.00000  2       56
siesta:     13.87645  13.41944   0.00000  2       57
siesta:     16.20459  14.76308   0.00000  2       58
siesta:     13.87670  18.79590   0.00000  2       59
siesta:     16.20471  17.45226   0.00000  2       60
siesta:     18.53284  18.79590   0.00000  2       61
siesta:     18.53486  21.48508   0.00000  2       62
siesta:     20.86299  22.82873   0.00000  2       63
siesta:     27.84664  10.73026   0.00000  2       64
siesta:     23.19063  13.41944   0.00000  2       65
siesta:     25.51876  14.76308   0.00000  2       66
siesta:     23.19088  18.79590   0.00000  2       67
siesta:     25.51888  17.45226   0.00000  2       68
siesta:     27.84702  18.79590   0.00000  2       69
siesta:     32.50316  18.79590   0.00000  2       70
siesta:     37.16131  21.48508   0.00000  2       71
siesta:     39.48945  22.82873   0.00000  2       72

siesta: System type = slab      

initatomlists: Number of atoms, orbitals, and projectors:     72   936  1152

siesta: ******************** Simulation parameters ****************************
siesta:
siesta: The following are some of the parameters of the simulation.
siesta: A complete list of the parameters used, including default values,
siesta: can be found in file out.fdf
siesta:
redata: Non-Collinear-spin run           =     F
redata: SpinPolarized (Up/Down) run      =     F
redata: Number of spin components        =     1
redata: Long output                      =     F
redata: Number of Atomic Species         =        2
redata: Charge density info will appear in .RHO file
redata: Write Mulliken Pop.              =     NO
redata: Mesh Cutoff                      =   200.0000  Ry
redata: Net charge of the system         =     0.0000 |e|
redata: Max. number of SCF Iter          =      500
redata: SCF convergence failure will abort job
redata: Performing Pulay mixing using    =    10 iterations
redata: Mix DM in first SCF step ?       =     F
redata: Write Pulay info on disk?        =     F
redata: Discard 1st Pulay DM after  kick =     F
redata: New DM Mixing Weight             =     0.0500
redata: New DM Occupancy tolerance       = 0.000000000001
redata: No kicks to SCF
redata: DM Mixing Weight for Kicks       =     0.5000
redata: DM Tolerance for SCF             =     0.000100
redata: Require Energy convergence for SCF =     F
redata: DM Energy tolerance for SCF      =     0.000100 eV
redata: Require Harris convergence for SCF =     F
redata: DM Harris energy tolerance for SCF =     0.000100 eV
redata: Using Saved Data (generic)   =     F
redata: Use continuation files for DM    =     T
redata: Neglect nonoverlap interactions  =     F
redata: Method of Calculation            =     Diagonalization
redata: Divide and Conquer               =     T
redata: Electronic Temperature           =     0.0019  Ry
redata: Fix the spin of the system       =     F
redata: Dynamics option                  =     Verlet MD run
redata: Initial MD time step             =        1
redata:   Final MD time step             =        1
redata: Length of MD time step           =     1.0000  fs
redata: Initial Temperature of MD run    =     0.0000  K
redata: Perform a MD quench              =     F
redata: ***********************************************************************
Total number of electrons:   315.000000
Total ionic charge:   315.000000

* ProcessorY, Blocksize:    2  24

k-point displ. along   1 input, could be:     0.00    0.50
k-point displ. along   2 input, could be:     0.00    0.50
 Kpoints in:          364 . Kpoints trimmed:          352

siesta: k-grid: Number of k-points =   352
siesta: k-grid: Cutoff (effective) =     5.000 Ang
siesta: k-grid: Supercell and displacements
siesta: k-grid:   26   0   0      0.000
siesta: k-grid:    0  26   0      0.000
siesta: k-grid:    0   0   1      0.000
Naive supercell factors:     2    2    2

superc: Internal auxiliary supercell:     2 x     2 x     2  =       8
superc: Number of atoms, orbitals, and projectors:    576   7488   9216

* Maximum dynamic memory allocated =     6 MB

siesta:                 ==============================
                            Begin MD step =      1
                        ==============================

superc: Internal auxiliary supercell:     2 x     2 x     2  =       8
superc: Number of atoms, orbitals, and projectors:    576   7488   9216

outcell: Unit cell vectors (Ang):
       14.785000    0.000000    0.000000
        7.393000   12.805052    0.000000
        0.000000    0.000000   10.000000

outcell: Cell vector modules (Ang)   :   14.785000   14.786000   10.000000
outcell: Cell angles (23,13,12) (deg):     90.0000     90.0000     60.0000
outcell: Cell volume (Ang**3)        :   1893.2269
New_DM. Step:     1
Initializing Density Matrix...

InitMesh: MESH =   120 x   120 x    90 =     1296000
InitMesh: Mesh cutoff (required, used) =   200.000   223.865 Ry

* Maximum dynamic memory allocated =   175 MB

stepf: Fermi-Dirac step function

siesta: Program's energy decomposition (eV):
siesta: Ebs     =     -4917.283271
siesta: Eions   =     22743.175864
siesta: Ena     =      4241.495010
siesta: Ekin    =      8644.090471
siesta: Enl     =      -528.041923
siesta: DEna    =        -0.000012
siesta: DUscf   =         0.000000
siesta: DUext   =         0.000000
siesta: Exc     =     -4604.506322
siesta: eta*DQ  =         0.000000
siesta: Emadel  =         0.000000
siesta: Emeta   =         0.000000
siesta: Emolmec =         0.000000
siesta: Ekinion =         0.000000
siesta: Eharris =    -14839.898712
siesta: Etot    =    -14990.138640
siesta: FreeEng =    -14990.138640

siesta: iscf   Eharris(eV)      E_KS(eV)   FreeEng(eV)   dDmax  Ef(eV)
siesta:    1   -14839.8987   -14990.1386   -14990.1386  1.8873 -3.6712
timer: Routine,Calls,Time,% = IterSCF        1    6306.234  99.81
elaps: Routine,Calls,Wall,% = IterSCF        1     789.231  99.81
siesta:    2   -14877.6333   -14800.6449   -14800.6764  0.2594 -3.0573
siesta:    3   -14840.7903   -14836.4944   -14836.5373  0.2764 -3.0084
siesta:    4   -14830.2638   -14826.5740   -14826.6255  0.1613 -2.7549
siesta:    5   -14825.2133   -14820.9742   -14821.0259  0.1335 -2.6168
siesta:    6   -14823.1661   -14819.3587   -14819.4006  0.1118 -2.5829
siesta:    7   -14822.1561   -14819.5793   -14819.6122  0.0410 -2.6878
siesta:    8   -14822.1709   -14820.1415   -14820.1739  0.0237 -2.7419
siesta:    9   -14822.1309   -14821.2173   -14821.2500  0.0220 -2.8104
siesta:   10   -14822.0909   -14821.3094   -14821.3418  0.0096 -2.8103
siesta:   11   -14822.0853   -14821.2895   -14821.3211  0.0079 -2.8031
siesta:   12   -14822.0810   -14821.7818   -14821.8135  0.0027 -2.7970
siesta:   13   -14822.0807   -14821.7973   -14821.8291  0.0018 -2.7957
siesta:   14   -14822.0798   -14821.9374   -14821.9692  0.0007 -2.7948
siesta:   15   -14822.0798   -14821.9608   -14821.9926  0.0007 -2.7952
siesta:   16   -14822.0798   -14821.9741   -14822.0059  0.0004 -2.7948
siesta:   17   -14822.0798   -14822.0485   -14822.0803  0.0002 -2.7948
siesta:   18   -14822.0798   -14822.0579   -14822.0897  0.0002 -2.7948
siesta:   19   -14822.0798   -14822.0681   -14822.0999  0.0001 -2.7948

siesta: E_KS(eV) =           -14822.0761

siesta: E_KS - E_eggbox =    -14822.0761

siesta: Atomic forces (eV/Ang):
----------------------------------------
   Tot    0.241497   -0.012879    0.000000
----------------------------------------
   Max    1.191617
   Res    0.451619    sqrt( Sum f_i^2 / 3N )
----------------------------------------
   Max    1.191617    constrained

Stress-tensor-Voigt (kbar):       51.86       55.36        0.34        2.53        0.00        0.00
(Free)E + p*V (eV/cell)   -14864.4727
Target enthalpy (eV/cell)   -14822.1079

siesta: Stress tensor (static) (eV/Ang**3):
         0.032367    0.001579    0.000000
         0.001579    0.034551    0.000000
         0.000000    0.000000    0.000214

siesta: Pressure (static):        -35.85236704  kBar

siesta: Stress tensor (total) (eV/Ang**3):
         0.032367    0.001579    0.000000
         0.001579    0.034551    0.000000
         0.000000    0.000000    0.000214

siesta: Pressure (total):        -35.85236704  kBar

siesta: Temp_ion =       0.000 K

* Maximum dynamic memory allocated =   189 MB

siesta: Program's energy decomposition (eV):
siesta: Ebs     =     -4668.192859
siesta: Eions   =     22743.175864
siesta: Ena     =      4241.495010
siesta: Ekin    =     10097.731722
siesta: Enl     =     -1592.284525
siesta: DEna    =      -175.734082
siesta: DUscf   =        24.538114
siesta: DUext   =         0.000000
siesta: Exc     =     -4674.646478
siesta: eta*DQ  =         0.000000
siesta: Emadel  =         0.000000
siesta: Emeta   =         0.000000
siesta: Emolmec =         0.000000
siesta: Ekinion =         0.000000
siesta: Eharris =    -14822.079772
siesta: Etot    =    -14822.076103
siesta: FreeEng =    -14822.107878

siesta: Final energy (eV):
siesta:  Band Struct. =   -4668.192859
siesta:       Kinetic =   10097.731722
siesta:       Hartree =   28297.868807
siesta:    Ext. field =       0.000000
siesta:   Exch.-corr. =   -4674.646478
siesta:  Ion-electron =  -66080.365076
siesta:       Ion-ion =   17537.334923
siesta:       Ekinion =       0.000000
siesta:         Total =  -14822.076103

siesta: Atomic forces (eV/Ang):
siesta:      1   -0.609896    0.984792    0.000000
siesta:      2   -1.155823   -0.004423    0.000000
siesta:      3    0.504795   -0.231707    0.000000
siesta:      4   -0.586715    0.980293    0.000000
siesta:      5   -0.623232    0.984893    0.000000
siesta:      6   -1.170508   -0.008083    0.000000
siesta:      7    0.470574   -0.240973    0.000000
siesta:      8   -1.155932   -0.009811    0.000000
siesta:      9    0.496102   -0.245612    0.000000
siesta:     10   -1.159831   -0.012506    0.000000
siesta:     11    0.472616   -0.241569    0.000000
siesta:     12   -0.600750    0.999423    0.000000
siesta:     13   -0.584636    1.001137    0.000000
siesta:     14   -1.168245   -0.005643    0.000000
siesta:     15    0.471422   -0.241440    0.000000
siesta:     16   -1.191617   -0.000359    0.000000
siesta:     17    0.468127   -0.244141    0.000000
siesta:     18   -0.602025    0.998235    0.000000
siesta:     19   -1.144072   -0.008210    0.000000
siesta:     20    0.505437   -0.231783    0.000000
siesta:     21   -0.591034    0.996314    0.000000
siesta:     22   -0.613814    0.999567    0.000000
siesta:     23   -1.158823   -0.007816    0.000000
siesta:     24    0.471080   -0.240856    0.000000
siesta:     25   -1.157989   -0.007867    0.000000
siesta:     26    0.465868   -0.224941    0.000000
siesta:     27   -0.588756    0.997855    0.000000
siesta:     28    0.793518   -0.457072    0.000000
siesta:     29    0.180127   -0.105878    0.000000
siesta:     30   -0.333718   -0.139795    0.000000
siesta:     31    0.744215   -0.438831    0.000000
siesta:     32   -0.045553    0.384795    0.000000
siesta:     33    0.179097   -0.109956    0.000000
siesta:     34   -0.343477   -0.140452    0.000000
siesta:     35    0.743303   -0.438999    0.000000
siesta:     36   -0.045852    0.384378    0.000000
siesta:     37    0.743411   -0.433230    0.000000
siesta:     38   -0.058810    0.408575    0.000000
siesta:     39    0.179569   -0.128823    0.000000
siesta:     40   -0.354721   -0.140646    0.000000
siesta:     41    0.796834   -0.454931    0.000000
siesta:     42    0.182862   -0.127700    0.000000
siesta:     43   -0.320973   -0.141008    0.000000
siesta:     44    0.791360   -0.457543    0.000000
siesta:     45    0.181258   -0.128914    0.000000
siesta:     46   -0.342570   -0.140184    0.000000
siesta:     47    0.740804   -0.438063    0.000000
siesta:     48   -0.054509    0.388353    0.000000
siesta:     49    0.710469   -0.434111    0.000000
siesta:     50   -0.059070    0.388991    0.000000
siesta:     51    0.792275   -0.450135    0.000000
siesta:     52    0.177534   -0.109404    0.000000
siesta:     53   -0.353735   -0.138006    0.000000
siesta:     54    0.831867   -0.463116    0.000000
siesta:     55    0.150154   -0.101621    0.000000
siesta:     56   -0.358162   -0.138968    0.000000
siesta:     57    0.744460   -0.438217    0.000000
siesta:     58   -0.032350    0.383538    0.000000
siesta:     59    0.794371   -0.450747    0.000000
siesta:     60    0.181511   -0.106770    0.000000
siesta:     61   -0.322348   -0.142253    0.000000
siesta:     62    0.710030   -0.431511    0.000000
siesta:     63   -0.063909    0.407696    0.000000
siesta:     64    0.795142   -0.451725    0.000000
siesta:     65    0.740675   -0.436810    0.000000
siesta:     66   -0.055034    0.387604    0.000000
siesta:     67    0.789821   -0.450020    0.000000
siesta:     68    0.178309   -0.107808    0.000000
siesta:     69   -0.354901   -0.138998    0.000000
siesta:     70    0.794582   -0.450714    0.000000
siesta:     71    0.705392   -0.429919    0.000000
siesta:     72   -0.074086    0.411303    0.000000
siesta: ----------------------------------------
siesta:    Tot    0.241497   -0.012879    0.000000

siesta: Stress tensor (static) (eV/Ang**3):
siesta:     0.032367    0.001579    0.000000
siesta:     0.001579    0.034551    0.000000
siesta:     0.000000    0.000000    0.000214

siesta: Cell volume =       1893.226895 Ang**3

siesta: Pressure (static):
siesta:                Solid            Molecule  Units
siesta:          -0.00024371         -0.00026936  Ry/Bohr**3
siesta:          -0.02237705         -0.02473191  eV/Ang**3
siesta:         -35.85236704        -39.62531385  kBar
(Free)E+ p_basis*V_orbitals  =      -14795.230277
(Free)Eharris+ p_basis*V_orbitals  =      -14795.241951

siesta: Electric dipole (a.u.)  =    0.000000    0.000000    0.000000
siesta: Electric dipole (Debye) =    0.000000    0.000000    0.000000

* Maximum dynamic memory allocated : Node    0 =   189 MB
* Maximum dynamic memory allocated : Node    1 =    71 MB
* Maximum dynamic memory allocated : Node    2 =    72 MB
* Maximum dynamic memory allocated : Node    3 =   179 MB
* Maximum dynamic memory allocated : Node    4 =   189 MB
* Maximum dynamic memory allocated : Node    5 =    70 MB
* Maximum dynamic memory allocated : Node    6 =    72 MB
* Maximum dynamic memory allocated : Node    7 =   175 MB

* Maximum memory occured during matrixMtoO                    

timer: CPU execution times:
timer:  Routine       Calls   Time/call    Tot.time        %
timer:  siesta            1  118682.965  118682.965   100.00
timer:  Setup             1       3.829       3.829     0.00
timer:  bands             1       0.019       0.019     0.00
timer:  writewave         1       0.042       0.042     0.00
timer:  KSV_init          1       0.006       0.006     0.00
timer:  IterMD            1  118671.228  118671.228    99.99
timer:  hsparse           1       0.255       0.255     0.00
timer:  overlap           1       7.669       7.669     0.01
timer:  IterSCF          19    6238.225  118526.280    99.87
timer:  kinefsm           2       3.918       7.836     0.01
timer:  nlefsm            2      17.680      35.360     0.03
timer:  DHSCF            20      77.596    1551.912     1.31
timer:  DHSCF1            1       0.759       0.759     0.00
timer:  DHSCF2            1      31.375      31.375     0.03
timer:  REORD           162       0.010       1.630     0.00
timer:  POISON           21       2.253      47.312     0.04
timer:  DHSCF3           20      74.573    1491.454     1.26
timer:  rhoofd           20      13.789     275.779     0.23
timer:  cellXC           20       3.487      69.735     0.06
timer:  vmat             20      37.829     756.579     0.64
timer:  MolMec            2       0.000       0.000     0.00
timer:  diagon           19    6158.651  117014.366    98.59
timer:  c-eigval       6688       6.680   44679.034    37.65
timer:  c-buildHS      6688       0.112     746.552     0.63
timer:  cdiag         13376       6.872   91919.265    77.45
timer:  cdiag1        13376       0.424    5673.642     4.78
timer:  cdiag2        13376       1.903   25451.840    21.45
timer:  cdiag3        13376       3.965   53037.424    44.69
timer:  cdiag4        13376       0.206    2759.789     2.33
timer:  c-eigvec       6688       7.243   48439.665    40.81
timer:  c-buildD       6688       3.565   23839.887    20.09
timer:  DHSCF4            1      27.226      27.226     0.02
timer:  dfscf             1      25.480      25.480     0.02
timer:  overfsm           1       0.364       0.364     0.00
timer:  optical           1       6.957       6.957     0.01
  

elaps: ELAPSED times:
elaps:  Routine       Calls   Time/call    Tot.time        %
elaps:  siesta            1   14851.478   14851.478   100.00
elaps:  Setup             1       0.496       0.496     0.00
elaps:  bands             1       0.002       0.002     0.00
elaps:  writewave         1       0.006       0.006     0.00
elaps:  KSV_init          1       0.001       0.001     0.00
elaps:  IterMD            1   14849.985   14849.985    99.99
elaps:  hsparse           1       0.031       0.031     0.00
elaps:  overlap           1       0.962       0.962     0.01
elaps:  IterSCF          19     780.630   14831.965    99.87
elaps:  kinefsm           2       0.492       0.984     0.01
elaps:  nlefsm            2       2.323       4.647     0.03
elaps:  DHSCF            20       9.845     196.892     1.33
elaps:  DHSCF1            1       0.099       0.099     0.00
elaps:  DHSCF2            1       3.920       3.920     0.03
elaps:  REORD           162       0.001       0.219     0.00
elaps:  POISON           21       0.281       5.909     0.04
elaps:  DHSCF3           20       9.329     186.583     1.26
elaps:  rhoofd           20       2.973      59.451     0.40
elaps:  cellXC           20       0.436       8.711     0.06
elaps:  vmat             20       4.732      94.639     0.64
elaps:  MolMec            2       0.000       0.000     0.00
elaps:  diagon           19     770.676   14642.852    98.60
elaps:  c-eigval       6688       0.836    5590.017    37.64
elaps:  c-buildHS      6688       0.015     102.197     0.69
elaps:  cdiag         13376       0.849   11356.128    76.46
elaps:  cdiag1        13376       0.053     705.935     4.75
elaps:  cdiag2        13376       0.238    3184.550    21.44
elaps:  cdiag3        13376       0.497    6645.229    44.74
elaps:  cdiag4        13376       0.026     348.780     2.35
elaps:  c-eigvec       6688       0.891    5959.132    40.12
elaps:  c-buildD       6688       0.461    3085.929    20.78
elaps:  DHSCF4            1       6.140       6.140     0.04
elaps:  dfscf             1       5.776       5.776     0.04
elaps:  overfsm           1       0.046       0.046     0.00
elaps:  optical           1       0.001       0.001     0.00
  
>> End of run:   5-DEC-2015   8:21:05
