Siesta Version:                                        siesta-3.2-pl-3
Architecture  : x86_64-unknown-linux-gnu--unknown
Compiler flags: mpiifort -g -O2 -fPIC -xSSE4.1 -fp-model source -shared-intel 
PARALLEL version

* Running on    8 nodes in parallel
>> Start of run:  10-DEC-2015  23:27:47

                           ***********************       
                           *  WELCOME TO SIESTA  *       
                           ***********************       

reinit: Reading from standard input
************************** Dump of input data file ****************************
#(1) General system descriptors
SystemName            GRP_doping    # Descriptive name of the system
SystemLabel           GRP_doping    # Short name for naming files
%include STRUCT.fdf
%include KPT.fdf
%include BASIS.fdf
#%include TS.fdf # for transiesta calculation
#(4) DFT, Grid, SCF
XC.functional         GGA           # LDA or GGA (default = LDA)
XC.authors            PBE           # CA (Ceperley-Aldr) = PZ
                                    #    (Perdew-Zunger) - LDA - Default
                                    # PW92 (Perdew-Wang-92) - LDA
                                    # PBE (Perdew-Burke-Ernzerhof) - GGA
MeshCutoff            200.000000    Ry      # Default: 50.0 Ry ~ 0.444 Bohr
                                    #         100.0 Ry ~ 0.314 Bohr
MaxSCFIterations      500           # Default: 50
DM.MixingWeight       0.05          # Default: 0.25
DM.NumberPulay        10            # Default: 0
DM.PulayOnFile        F             # SystemLabel.P1, SystemLabel.P2
DM.Tolerance          1.d-4         # Default: 1.d-4
DM.UseSaveDM          .true.        # because of the bug
SCFMustConverge       .true.
NeglNonOverlapInt     F             # Default: F
#(5) Eigenvalue problem: order-N or diagonalization
SolutionMethod        Diagon        # or Transiesta
ElectronicTemperature 300.0 K       # Default: 300.0 K
#(6) Molecular dynamics and relaxations
#MD.TypeOfRun          CG            # Type of dynamics:
#MD.VariableCell       F
#MD.NumCGsteps         0           # 0 for single-point / 100 for gopt
#MD.MaxCGDispl         0.2 Bohr      # Default: 0.2 Bohr
#MD.MaxForceTol        0.02 eV/Ang   # Default: 0.04 eV/Ang
#MD.MaxStressTol       1.0 GPa       # Default: 1.0 GPa
# Geometry Constraints
#%block GeometryConstraints
#	position from 1 to 44
#%endblock GeometryConstraints
BandLinesScale   pi/a
%block BandLines
 1   0.00000000  0.00000000  0.00000000
50   0.00000000  0.07809418  0.00000000
50   0.04509075  0.07809242  0.00000000
20   0.00000000  0.00000000  0.00000000
%endblock BandLines
************************** End of input data file *****************************

reinit: -----------------------------------------------------------------------
reinit: System Name: GRP_doping
reinit: -----------------------------------------------------------------------
reinit: System Label: GRP_doping                                                  
reinit: -----------------------------------------------------------------------

initatom: Reading input for the pseudopotentials and atomic orbitals ----------
 Species number:            1  Label: C Atomic number:           6
 Species number:            2  Label: N Atomic number:           7
Ground state valence configuration:   2s02  2p02
Reading pseudopotential information in formatted form from C.psf

Valence configuration for pseudopotential generation:
2s( 2.00) rc: 1.54
2p( 2.00) rc: 1.54
3d( 0.00) rc: 1.54
4f( 0.00) rc: 1.54
Ground state valence configuration:   2s02  2p03
Reading pseudopotential information in formatted form from N.psf

Valence configuration for pseudopotential generation:
2s( 2.00) rc: 1.48
2p( 3.00) rc: 1.48
3d( 0.00) rc: 1.48
4f( 0.00) rc: 1.48
For C, standard SIESTA heuristics set lmxkb to 3
 (one more than the basis l, including polarization orbitals).
Use PS.lmax or PS.KBprojectors blocks to override.
For N, standard SIESTA heuristics set lmxkb to 3
 (one more than the basis l, including polarization orbitals).
Use PS.lmax or PS.KBprojectors blocks to override.

<basis_specs>
===============================================================================
C                    Z=   6    Mass=  12.010        Charge= 0.17977+309
Lmxo=1 Lmxkb= 3    BasisType=split      Semic=F
L=0  Nsemic=0  Cnfigmx=2
          n=1  nzeta=2  polorb=0
            splnorm:   0.15000    
               vcte:    0.0000    
               rinn:    0.0000    
                rcs:    0.0000      0.0000    
            lambdas:    1.0000      1.0000    
L=1  Nsemic=0  Cnfigmx=2
          n=1  nzeta=2  polorb=1
            splnorm:   0.15000    
               vcte:    0.0000    
               rinn:    0.0000    
                rcs:    0.0000      0.0000    
            lambdas:    1.0000      1.0000    
-------------------------------------------------------------------------------
L=0  Nkbl=1  erefs: 0.17977+309
L=1  Nkbl=1  erefs: 0.17977+309
L=2  Nkbl=1  erefs: 0.17977+309
L=3  Nkbl=1  erefs: 0.17977+309
===============================================================================
</basis_specs>

atom: Called for C                     (Z =   6)

read_vps: Pseudopotential generation method:
read_vps: ATM3      Troullier-Martins                       
Total valence charge:    4.00000

read_vps: Pseudopotential includes a core correction:
read_vps: Pseudo-core for xc-correction

xc_check: Exchange-correlation functional:
xc_check: GGA Perdew, Burke & Ernzerhof 1996
V l=0 = -2*Zval/r beyond r=  1.5227
V l=1 = -2*Zval/r beyond r=  1.5227
V l=2 = -2*Zval/r beyond r=  1.5227
V l=3 = -2*Zval/r beyond r=  1.5038
All V_l potentials equal beyond r=  1.5227
This should be close to max(r_c) in ps generation
All pots = -2*Zval/r beyond r=  1.5227

VLOCAL1: 99.0% of the norm of Vloc inside     18.722 Ry
VLOCAL1: 99.9% of the norm of Vloc inside     42.668 Ry
atom: Maximum radius for 4*pi*r*r*local-pseudopot. charge    1.83678
atom: Maximum radius for r*vlocal+2*Zval:    1.58088
GHOST: No ghost state for L =  0
GHOST: No ghost state for L =  1
GHOST: No ghost state for L =  2
GHOST: No ghost state for L =  3

KBgen: Kleinman-Bylander projectors: 
   l= 0   rc=  1.704034   el= -1.009801   Ekb=  5.335044   kbcos=  0.316824
   l= 1   rc=  1.704034   el= -0.388707   Ekb= -3.785862   kbcos= -0.366464
   l= 2   rc=  1.791422   el=  0.001971   Ekb= -0.970471   kbcos= -0.009212
   l= 3   rc=  1.859892   el=  0.003065   Ekb= -0.399525   kbcos= -0.001223

KBgen: Total number of  Kleinman-Bylander projectors:   16
atom: -------------------------------------------------------------------------

atom: SANKEY-TYPE ORBITALS:
atom: Selected multiple-zeta basis: split     

SPLIT: Orbitals with angular momentum L= 0

SPLIT: Basis orbitals for state 2s

SPLIT: PAO cut-off radius determined from an
SPLIT: energy shift=  0.007350 Ry

   izeta = 1
                 lambda =    1.000000
                     rc =    4.632753
                 energy =   -1.002270
                kinetic =    0.855760
    potential(screened) =   -1.858031
       potential(ionic) =   -5.417575

   izeta = 2
                 rmatch =    3.431921
              splitnorm =    0.150000
                 energy =   -0.867111
                kinetic =    1.300804
    potential(screened) =   -2.167915
       potential(ionic) =   -5.962684

SPLIT: Orbitals with angular momentum L= 1

SPLIT: Basis orbitals for state 2p

SPLIT: PAO cut-off radius determined from an
SPLIT: energy shift=  0.007350 Ry

   izeta = 1
                 lambda =    1.000000
                     rc =    5.658549
                 energy =   -0.381140
                kinetic =    2.399701
    potential(screened) =   -2.780841
       potential(ionic) =   -6.206085

   izeta = 2
                 rmatch =    3.653288
              splitnorm =    0.150000
                 energy =   -0.249149
                kinetic =    3.542762
    potential(screened) =   -3.791911
       potential(ionic) =   -7.581078

POLgen: Perturbative polarization orbital with L=  2

POLgen: Polarization orbital for state 2p

   izeta = 1
                     rc =    5.658549
                 energy =    1.109913
                kinetic =    2.304789
    potential(screened) =   -1.194876
       potential(ionic) =   -4.013592
atom: Total number of Sankey-type orbitals: 13

atm_pop: Valence configuration (for local Pseudopot. screening):
 2s( 2.00)                                                            
 2p( 2.00)                                                            
Vna: chval, zval:    4.00000   4.00000

Vna:  Cut-off radius for the neutral-atom potential:   5.658549
comcore: Pseudo-core radius Rcore=  1.791422

atom: _________________________________________________________________________

<basis_specs>
===============================================================================
N                    Z=   7    Mass=  14.010        Charge= 0.17977+309
Lmxo=1 Lmxkb= 3    BasisType=split      Semic=F
L=0  Nsemic=0  Cnfigmx=2
          n=1  nzeta=2  polorb=0
            splnorm:   0.15000    
               vcte:    0.0000    
               rinn:    0.0000    
                rcs:    0.0000      0.0000    
            lambdas:    1.0000      1.0000    
L=1  Nsemic=0  Cnfigmx=2
          n=1  nzeta=2  polorb=1
            splnorm:   0.15000    
               vcte:    0.0000    
               rinn:    0.0000    
                rcs:    0.0000      0.0000    
            lambdas:    1.0000      1.0000    
-------------------------------------------------------------------------------
L=0  Nkbl=1  erefs: 0.17977+309
L=1  Nkbl=1  erefs: 0.17977+309
L=2  Nkbl=1  erefs: 0.17977+309
L=3  Nkbl=1  erefs: 0.17977+309
===============================================================================
</basis_specs>

atom: Called for N                     (Z =   7)

read_vps: Pseudopotential generation method:
read_vps: ATM3      Troullier-Martins                       
Total valence charge:    5.00000

read_vps: Pseudopotential includes a core correction:
read_vps: Pseudo-core for xc-correction

xc_check: Exchange-correlation functional:
xc_check: GGA Perdew, Burke & Ernzerhof 1996
V l=0 = -2*Zval/r beyond r=  1.4606
V l=1 = -2*Zval/r beyond r=  1.4606
V l=2 = -2*Zval/r beyond r=  1.4606
V l=3 = -2*Zval/r beyond r=  1.4606
All V_l potentials equal beyond r=  1.4606
This should be close to max(r_c) in ps generation
All pots = -2*Zval/r beyond r=  1.4606

VLOCAL1: 99.0% of the norm of Vloc inside     20.347 Ry
VLOCAL1: 99.9% of the norm of Vloc inside     46.372 Ry
atom: Maximum radius for 4*pi*r*r*local-pseudopot. charge    1.76189
atom: Maximum radius for r*vlocal+2*Zval:    1.53550
GHOST: No ghost state for L =  0
GHOST: No ghost state for L =  1
GHOST: No ghost state for L =  2
GHOST: No ghost state for L =  3

KBgen: Kleinman-Bylander projectors: 
   l= 0   rc=  1.634559   el= -1.363963   Ekb=  5.296955   kbcos=  0.335621
   l= 1   rc=  1.614250   el= -0.521451   Ekb= -5.259161   kbcos= -0.433408
   l= 2   rc=  1.718383   el=  0.001991   Ekb= -1.271464   kbcos= -0.007566
   l= 3   rc=  1.761893   el=  0.003093   Ekb= -0.494769   kbcos= -0.001015

KBgen: Total number of  Kleinman-Bylander projectors:   16
atom: -------------------------------------------------------------------------

atom: SANKEY-TYPE ORBITALS:
atom: Selected multiple-zeta basis: split     

SPLIT: Orbitals with angular momentum L= 0

SPLIT: Basis orbitals for state 2s

SPLIT: PAO cut-off radius determined from an
SPLIT: energy shift=  0.007350 Ry

   izeta = 1
                 lambda =    1.000000
                     rc =    4.071465
                 energy =   -1.356470
                kinetic =    1.176977
    potential(screened) =   -2.533447
       potential(ionic) =   -8.057990

   izeta = 2
                 rmatch =    2.905100
              splitnorm =    0.150000
                 energy =   -1.158343
                kinetic =    1.813009
    potential(screened) =   -2.971352
       potential(ionic) =   -8.901931

SPLIT: Orbitals with angular momentum L= 1

SPLIT: Basis orbitals for state 2p

SPLIT: PAO cut-off radius determined from an
SPLIT: energy shift=  0.007350 Ry

   izeta = 1
                 lambda =    1.000000
                     rc =    4.972977
                 energy =   -0.513884
                kinetic =    3.441732
    potential(screened) =   -3.955616
       potential(ionic) =   -9.287901

   izeta = 2
                 rmatch =    3.054066
              splitnorm =    0.150000
                 energy =   -0.318226
                kinetic =    5.125348
    potential(screened) =   -5.443573
       potential(ionic) =  -11.380999

POLgen: Perturbative polarization orbital with L=  2

POLgen: Polarization orbital for state 2p

   izeta = 1
                     rc =    4.972977
                 energy =    1.607437
                kinetic =    3.268125
    potential(screened) =   -1.660688
       potential(ionic) =   -5.973652
atom: Total number of Sankey-type orbitals: 13

atm_pop: Valence configuration (for local Pseudopot. screening):
 2s( 2.00)                                                            
 2p( 3.00)                                                            
Vna: chval, zval:    5.00000   5.00000

Vna:  Cut-off radius for the neutral-atom potential:   4.972977
comcore: Pseudo-core radius Rcore=  1.554824

atom: _________________________________________________________________________

prinput: Basis input ----------------------------------------------------------

PAO.BasisType split     

%block ChemicalSpeciesLabel
    1    6 C                       # Species index, atomic number, species label
    2    7 N                       # Species index, atomic number, species label
%endblock ChemicalSpeciesLabel

%block PAO.Basis                 # Define Basis set
C                     2                    # Species label, number of l-shells
 n=2   0   2                         # n, l, Nzeta 
   4.633      3.432   
   1.000      1.000   
 n=2   1   2 P   1                   # n, l, Nzeta, Polarization, NzetaPol
   5.659      3.653   
   1.000      1.000   
N                     2                    # Species label, number of l-shells
 n=2   0   2                         # n, l, Nzeta 
   4.071      2.905   
   1.000      1.000   
 n=2   1   2 P   1                   # n, l, Nzeta, Polarization, NzetaPol
   4.973      3.054   
   1.000      1.000   
%endblock PAO.Basis

prinput: ----------------------------------------------------------------------

coor:   Atomic-coordinates input format  =     Cartesian coordinates
coor:                                          (in Angstroms)

siesta: Atomic coordinates (Bohr) and species
siesta:      2.23554   1.32097   0.00000  1        1
siesta:      4.56367   2.66461   0.00000  1        2
siesta:     32.50328  21.48508   0.00000  1        3
siesta:     34.83141  22.82873   0.00000  1        4
siesta:     34.83116  17.45226   0.00000  1        5
siesta:     37.15930  18.79590   0.00000  1        6
siesta:     32.50291  13.41944   0.00000  1        7
siesta:     34.83104  14.76308   0.00000  1        8
siesta:     30.17465   9.38661   0.00000  1        9
siesta:     32.50278  10.73026   0.00000  1       10
siesta:     27.84639   5.35379   0.00000  1       11
siesta:     30.17453   6.69743   0.00000  1       12
siesta:     27.84714  21.48508   0.00000  1       13
siesta:     30.17527  22.82873   0.00000  1       14
siesta:      6.89168   1.32097   0.00000  1       15
siesta:      9.21981   2.66461   0.00000  1       16
siesta:     11.54782   1.32097   0.00000  1       17
siesta:     13.87595   2.66461   0.00000  1       18
siesta:     16.20396   1.32097   0.00000  1       19
siesta:     18.53210   2.66461   0.00000  1       20
siesta:     20.86199   1.32097   0.00000  1       21
siesta:     23.19013   2.66461   0.00000  1       22
siesta:     25.51813   1.32097   0.00000  1       23
siesta:     27.84627   2.66461   0.00000  1       24
siesta:      4.56380   5.35379   0.00000  1       25
siesta:      6.89193   6.69743   0.00000  1       26
siesta:      9.21994   5.35379   0.00000  1       27
siesta:     11.54807   6.69743   0.00000  1       28
siesta:     13.87608   5.35379   0.00000  1       29
siesta:     16.20421   6.69743   0.00000  1       30
siesta:     18.53411   5.35379   0.00000  1       31
siesta:     20.86224   6.69743   0.00000  1       32
siesta:     23.19025   5.35379   0.00000  1       33
siesta:     25.51838   6.69743   0.00000  1       34
siesta:      6.89205   9.38661   0.00000  1       35
siesta:      9.22019  10.73026   0.00000  1       36
siesta:     11.54820   9.38661   0.00000  1       37
siesta:     13.87633  10.73026   0.00000  1       38
siesta:     16.20434   9.38661   0.00000  1       39
siesta:      9.22031  13.41944   0.00000  1       40
siesta:     11.54845  14.76308   0.00000  1       41
siesta:     13.87645  13.41944   0.00000  1       42
siesta:     16.20459  14.76308   0.00000  1       43
siesta:     11.54857  17.45226   0.00000  1       44
siesta:     13.87670  18.79590   0.00000  1       45
siesta:     16.20471  17.45226   0.00000  1       46
siesta:     18.53284  18.79590   0.00000  1       47
siesta:     13.87683  21.48508   0.00000  1       48
siesta:     16.20496  22.82873   0.00000  1       49
siesta:     18.53486  21.48508   0.00000  1       50
siesta:     20.86299  22.82873   0.00000  1       51
siesta:     25.51851   9.38661   0.00000  1       52
siesta:     27.84664  10.73026   0.00000  1       53
siesta:     23.19063  13.41944   0.00000  1       54
siesta:     25.51876  14.76308   0.00000  1       55
siesta:     20.86274  17.45226   0.00000  1       56
siesta:     23.19088  18.79590   0.00000  1       57
siesta:     27.84677  13.41944   0.00000  1       58
siesta:     30.17490  14.76308   0.00000  1       59
siesta:     25.51888  17.45226   0.00000  1       60
siesta:     27.84702  18.79590   0.00000  1       61
siesta:     23.19100  21.48508   0.00000  1       62
siesta:     25.51913  22.82873   0.00000  1       63
siesta:     30.17503  17.45226   0.00000  1       64
siesta:     32.50316  18.79590   0.00000  1       65
siesta:     37.16131  21.48508   0.00000  1       66
siesta:     39.48945  22.82873   0.00000  1       67
siesta:     18.53247  10.73026   0.00000  2       68
siesta:     20.86237   9.38661   0.00000  2       69
siesta:     23.19050  10.73026   0.00000  2       70
siesta:     18.53448  13.41944   0.00000  2       71
siesta:     20.86262  14.76308   0.00000  2       72

siesta: System type = slab      

initatomlists: Number of atoms, orbitals, and projectors:     72   936  1152

siesta: ******************** Simulation parameters ****************************
siesta:
siesta: The following are some of the parameters of the simulation.
siesta: A complete list of the parameters used, including default values,
siesta: can be found in file out.fdf
siesta:
redata: Non-Collinear-spin run           =     F
redata: SpinPolarized (Up/Down) run      =     F
redata: Number of spin components        =     1
redata: Long output                      =     F
redata: Number of Atomic Species         =        2
redata: Charge density info will appear in .RHO file
redata: Write Mulliken Pop.              =     NO
redata: Mesh Cutoff                      =   200.0000  Ry
redata: Net charge of the system         =     0.0000 |e|
redata: Max. number of SCF Iter          =      500
redata: SCF convergence failure will abort job
redata: Performing Pulay mixing using    =    10 iterations
redata: Mix DM in first SCF step ?       =     F
redata: Write Pulay info on disk?        =     F
redata: Discard 1st Pulay DM after  kick =     F
redata: New DM Mixing Weight             =     0.0500
redata: New DM Occupancy tolerance       = 0.000000000001
redata: No kicks to SCF
redata: DM Mixing Weight for Kicks       =     0.5000
redata: DM Tolerance for SCF             =     0.000100
redata: Require Energy convergence for SCF =     F
redata: DM Energy tolerance for SCF      =     0.000100 eV
redata: Require Harris convergence for SCF =     F
redata: DM Harris energy tolerance for SCF =     0.000100 eV
redata: Using Saved Data (generic)   =     F
redata: Use continuation files for DM    =     T
redata: Neglect nonoverlap interactions  =     F
redata: Method of Calculation            =     Diagonalization
redata: Divide and Conquer               =     T
redata: Electronic Temperature           =     0.0019  Ry
redata: Fix the spin of the system       =     F
redata: Dynamics option                  =     Verlet MD run
redata: Initial MD time step             =        1
redata:   Final MD time step             =        1
redata: Length of MD time step           =     1.0000  fs
redata: Initial Temperature of MD run    =     0.0000  K
redata: Perform a MD quench              =     F
redata: ***********************************************************************
Total number of electrons:   293.000000
Total ionic charge:   293.000000

* ProcessorY, Blocksize:    2  24

k-point displ. along   1 input, could be:     0.00    0.50
k-point displ. along   2 input, could be:     0.00    0.50
 Kpoints in:          364 . Kpoints trimmed:          352

siesta: k-grid: Number of k-points =   352
siesta: k-grid: Cutoff (effective) =     5.000 Ang
siesta: k-grid: Supercell and displacements
siesta: k-grid:   26   0   0      0.000
siesta: k-grid:    0  26   0      0.000
siesta: k-grid:    0   0   1      0.000
Naive supercell factors:     2    2    2

superc: Internal auxiliary supercell:     2 x     2 x     2  =       8
superc: Number of atoms, orbitals, and projectors:    576   7488   9216

* Maximum dynamic memory allocated =     6 MB

siesta:                 ==============================
                            Begin MD step =      1
                        ==============================

superc: Internal auxiliary supercell:     2 x     2 x     2  =       8
superc: Number of atoms, orbitals, and projectors:    576   7488   9216

outcell: Unit cell vectors (Ang):
       14.785000    0.000000    0.000000
        7.393000   12.805052    0.000000
        0.000000    0.000000   10.000000

outcell: Cell vector modules (Ang)   :   14.785000   14.786000   10.000000
outcell: Cell angles (23,13,12) (deg):     90.0000     90.0000     60.0000
outcell: Cell volume (Ang**3)        :   1893.2269
New_DM. Step:     1
Initializing Density Matrix...

iodm: Reading Density Matrix from files

InitMesh: MESH =   120 x   120 x    90 =     1296000
InitMesh: Mesh cutoff (required, used) =   200.000   223.865 Ry

* Maximum dynamic memory allocated =   191 MB

stepf: Fermi-Dirac step function

siesta: Program's energy decomposition (eV):
siesta: Ebs     =     -4073.712439
siesta: Eions   =     19206.745292
siesta: Ena     =      4025.246226
siesta: Ekin    =      8249.572003
siesta: Enl     =      -938.553705
siesta: DEna    =      -265.728851
siesta: DUscf   =        24.875775
siesta: DUext   =         0.000000
siesta: Exc     =     -4156.770608
siesta: eta*DQ  =         0.000000
siesta: Emadel  =         0.000000
siesta: Emeta   =         0.000000
siesta: Emolmec =         0.000000
siesta: Ekinion =         0.000000
siesta: Eharris =    -12268.098183
siesta: Etot    =    -12268.104453
siesta: FreeEng =    -12268.104453

siesta: iscf   Eharris(eV)      E_KS(eV)   FreeEng(eV)   dDmax  Ef(eV)
siesta:    1   -12268.0982   -12268.1045   -12268.1045  0.0001 -3.6476
timer: Routine,Calls,Time,% = IterSCF        1    6563.580  99.79
elaps: Routine,Calls,Wall,% = IterSCF        1     821.471  99.79

siesta: E_KS(eV) =           -12268.0982

siesta: E_KS - E_eggbox =    -12268.0982

siesta: Atomic forces (eV/Ang):
----------------------------------------
   Tot    0.266624   -0.221768    0.000000
----------------------------------------
   Max    1.527693
   Res    0.312429    sqrt( Sum f_i^2 / 3N )
----------------------------------------
   Max    1.527693    constrained

Stress-tensor-Voigt (kbar):      -21.17      -20.70        0.06       -0.16        0.00        0.00
(Free)E + p*V (eV/cell)   -12251.6510
Target enthalpy (eV/cell)   -12268.1172

siesta: Stress tensor (static) (eV/Ang**3):
        -0.013215   -0.000101    0.000000
        -0.000101   -0.012917    0.000000
         0.000000    0.000000    0.000041

siesta: Pressure (static):         13.93492625  kBar

siesta: Stress tensor (total) (eV/Ang**3):
        -0.013215   -0.000101    0.000000
        -0.000101   -0.012917    0.000000
         0.000000    0.000000    0.000041

siesta: Pressure (total):         13.93492625  kBar

siesta: Temp_ion =       0.000 K

* Maximum dynamic memory allocated =   205 MB
Computing bands...

siesta: Program's energy decomposition (eV):
siesta: Ebs     =     -4073.712439
siesta: Eions   =     19206.745292
siesta: Ena     =      4025.246226
siesta: Ekin    =      8249.575166
siesta: Enl     =      -938.553208
siesta: DEna    =      -265.727657
siesta: DUscf   =        24.876202
siesta: DUext   =         0.000000
siesta: Exc     =     -4156.769618
siesta: eta*DQ  =         0.000000
siesta: Emadel  =         0.000000
siesta: Emeta   =         0.000000
siesta: Emolmec =         0.000000
siesta: Ekinion =         0.000000
siesta: Eharris =    -12268.098183
siesta: Etot    =    -12268.098182
siesta: FreeEng =    -12268.117161

siesta: Final energy (eV):
siesta:  Band Struct. =   -4073.712439
siesta:       Kinetic =    8249.575166
siesta:       Hartree =   24088.669038
siesta:    Ext. field =       0.000000
siesta:   Exch.-corr. =   -4156.769618
siesta:  Ion-electron =  -55820.639820
siesta:       Ion-ion =   15371.067053
siesta:       Ekinion =       0.000000
siesta:         Total =  -12268.098182

siesta: Atomic forces (eV/Ang):
siesta:      1   -0.083648   -0.070200    0.000000
siesta:      2    0.099771    0.055967    0.000000
siesta:      3    0.122714   -0.039931    0.000000
siesta:      4    0.016236   -0.119274    0.000000
siesta:      5    0.033551    0.106464    0.000000
siesta:      6   -0.106237    0.052552    0.000000
siesta:      7    0.086655   -0.051496    0.000000
siesta:      8    0.049341   -0.080498    0.000000
siesta:      9   -0.035220   -0.370706    0.000000
siesta:     10    0.000581    0.081995    0.000000
siesta:     11    0.092787    0.255607    0.000000
siesta:     12   -0.044159    0.060560    0.000000
siesta:     13    0.011475    0.083174    0.000000
siesta:     14   -0.053478    0.093449    0.000000
siesta:     15   -0.001946    0.090297    0.000000
siesta:     16   -0.110947    0.053158    0.000000
siesta:     17    0.069371   -0.016520    0.000000
siesta:     18   -0.005141   -0.055589    0.000000
siesta:     19   -0.027537   -0.077063    0.000000
siesta:     20    0.364777    0.021810    0.000000
siesta:     21   -0.036812    0.039274    0.000000
siesta:     22   -0.340479   -0.027346    0.000000
siesta:     23    0.083259   -0.029141    0.000000
siesta:     24    0.011262   -0.093217    0.000000
siesta:     25    0.092233   -0.076190    0.000000
siesta:     26   -0.010469   -0.118913    0.000000
siesta:     27   -0.105289   -0.075808    0.000000
siesta:     28    0.044056    0.029373    0.000000
siesta:     29   -0.155177    0.286645    0.000000
siesta:     30    0.006925    0.982206    0.000000
siesta:     31    0.830110    0.403971    0.000000
siesta:     32   -0.184667   -0.295682    0.000000
siesta:     33   -0.700150    0.513698    0.000000
siesta:     34    0.062832    0.768631    0.000000
siesta:     35    0.035402    0.037560    0.000000
siesta:     36   -0.049747    0.025085    0.000000
siesta:     37    0.177907   -0.304668    0.000000
siesta:     38    0.844012   -0.514097    0.000000
siesta:     39   -0.352790   -0.221028    0.000000
siesta:     40   -0.067262   -0.015849    0.000000
siesta:     41    0.183083    0.272570    0.000000
siesta:     42    0.796398    0.534129    0.000000
siesta:     43   -0.328250   -0.005480    0.000000
siesta:     44    0.050891   -0.049548    0.000000
siesta:     45   -0.191655   -0.278051    0.000000
siesta:     46    0.110222   -0.882413    0.000000
siesta:     47    0.737098   -0.332982    0.000000
siesta:     48    0.063482    0.050018    0.000000
siesta:     49   -0.039418    0.062087    0.000000
siesta:     50    0.240373   -0.060388    0.000000
siesta:     51    0.018415   -0.060265    0.000000
siesta:     52    0.000128   -0.590399    0.000000
siesta:     53   -0.806033    0.051181    0.000000
siesta:     54   -1.478098   -0.868926    0.000000
siesta:     55   -0.110573   -0.063909    0.000000
siesta:     56   -0.527630    0.284203    0.000000
siesta:     57   -0.362470   -0.719183    0.000000
siesta:     58    0.000747    0.211606    0.000000
siesta:     59   -0.179962    0.049183    0.000000
siesta:     60    0.197716   -0.124012    0.000000
siesta:     61   -0.052380   -0.179601    0.000000
siesta:     62   -0.326007    0.132075    0.000000
siesta:     63    0.064718   -0.029398    0.000000
siesta:     64    0.018871   -0.003516    0.000000
siesta:     65    0.019789    0.013522    0.000000
siesta:     66   -0.143339   -0.063865    0.000000
siesta:     67    0.016330    0.051255    0.000000
siesta:     68    0.637932    0.355480    0.000000
siesta:     69    0.698391    0.130998    0.000000
siesta:     70   -0.962047    1.485925    0.000000
siesta:     71    0.477906    0.545366    0.000000
siesta:     72    0.777890   -1.527693    0.000000
siesta: ----------------------------------------
siesta:    Tot    0.266624   -0.221768    0.000000

siesta: Stress tensor (static) (eV/Ang**3):
siesta:    -0.013215   -0.000101    0.000000
siesta:    -0.000101   -0.012917    0.000000
siesta:     0.000000    0.000000    0.000041

siesta: Cell volume =       1893.226895 Ang**3

siesta: Pressure (static):
siesta:                Solid            Molecule  Units
siesta:           0.00009473          0.00015800  Ry/Bohr**3
siesta:           0.00869740          0.01450746  eV/Ang**3
siesta:          13.93492625         23.24376176  kBar
(Free)E+ p_basis*V_orbitals  =      -12238.094360
(Free)Eharris+ p_basis*V_orbitals  =      -12238.088090

siesta: Electric dipole (a.u.)  =    0.000000    0.000000    0.000000
siesta: Electric dipole (Debye) =    0.000000    0.000000    0.000000

* Maximum dynamic memory allocated : Node    0 =   205 MB
* Maximum dynamic memory allocated : Node    1 =    74 MB
* Maximum dynamic memory allocated : Node    2 =    76 MB
* Maximum dynamic memory allocated : Node    3 =   194 MB
* Maximum dynamic memory allocated : Node    4 =   205 MB
* Maximum dynamic memory allocated : Node    5 =    73 MB
* Maximum dynamic memory allocated : Node    6 =    75 MB
* Maximum dynamic memory allocated : Node    7 =   189 MB

* Maximum memory occured during matrixMtoO                    

timer: CPU execution times:
timer:  Routine       Calls   Time/call    Tot.time        %
timer:  siesta            1    7561.643    7561.643   100.00
timer:  Setup             1       4.889       4.889     0.06
timer:  bands             3     271.269     813.806    10.76
timer:  writewave         1       0.043       0.043     0.00
timer:  KSV_init          1       0.006       0.006     0.00
timer:  IterMD            1    6734.619    6734.619    89.06
timer:  hsparse           1       0.257       0.257     0.00
timer:  overlap           1       5.466       5.466     0.07
timer:  IterSCF           1    6563.580    6563.580    86.80
timer:  kinefsm           2       2.855       5.709     0.08
timer:  nlefsm            2      19.173      38.346     0.51
timer:  DHSCF             2     121.885     243.770     3.22
timer:  DHSCF1            1       0.763       0.763     0.01
timer:  DHSCF2            1      33.255      33.255     0.44
timer:  REORD            18       0.010       0.178     0.00
timer:  POISON            3       2.288       6.863     0.09
timer:  DHSCF3            2      88.801     177.602     2.35
timer:  rhoofd            2      16.972      33.944     0.45
timer:  cellXC            2       3.535       7.070     0.09
timer:  vmat              2      45.439      90.878     1.20
timer:  MolMec            2       0.001       0.001     0.00
timer:  diagon            1    6402.167    6402.167    84.67
timer:  c-eigval        473       6.718    3177.838    42.03
timer:  c-buildHS       473       0.118      56.007     0.74
timer:  cdiag           825       6.844    5646.700    74.68
timer:  cdiag1          825       0.427     352.321     4.66
timer:  cdiag2          825       1.913    1578.251    20.87
timer:  cdiag3          825       3.972    3276.982    43.34
timer:  cdiag4          825       0.175     144.052     1.91
timer:  c-eigvec        352       7.243    2549.590    33.72
timer:  c-buildD        352       4.220    1485.322    19.64
timer:  DHSCF4            1      31.983      31.983     0.42
timer:  dfscf             1      30.123      30.123     0.40
timer:  overfsm           1       0.376       0.376     0.00
timer:  optical           1       7.317       7.317     0.10
  

elaps: ELAPSED times:
elaps:  Routine       Calls   Time/call    Tot.time        %
elaps:  siesta            1     946.312     946.312   100.00
elaps:  Setup             1       0.619       0.619     0.07
elaps:  bands             3      33.961     101.884    10.77
elaps:  writewave         1       0.006       0.006     0.00
elaps:  KSV_init          1       0.001       0.001     0.00
elaps:  IterMD            1     842.817     842.817    89.06
elaps:  hsparse           1       0.032       0.032     0.00
elaps:  overlap           1       0.517       0.517     0.05
elaps:  IterSCF           1     821.471     821.471    86.81
elaps:  kinefsm           2       0.271       0.541     0.06
elaps:  nlefsm            2       2.392       4.784     0.51
elaps:  DHSCF             2      16.863      33.726     3.56
elaps:  DHSCF1            1       0.100       0.100     0.01
elaps:  DHSCF2            1       4.159       4.159     0.44
elaps:  REORD            18       0.001       0.025     0.00
elaps:  POISON            3       0.286       0.859     0.09
elaps:  DHSCF3            2      11.111      22.221     2.35
elaps:  rhoofd            2       3.668       7.336     0.78
elaps:  cellXC            2       0.442       0.883     0.09
elaps:  vmat              2       5.686      11.372     1.20
elaps:  MolMec            2       0.000       0.000     0.00
elaps:  diagon            1     801.228     801.228    84.67
elaps:  c-eigval        473       0.841     397.626    42.02
elaps:  c-buildHS       473       0.016       7.676     0.81
elaps:  cdiag           825       0.847     698.935    73.86
elaps:  cdiag1          825       0.053      43.991     4.65
elaps:  cdiag2          825       0.239     197.484    20.87
elaps:  cdiag3          825       0.498     410.630    43.39
elaps:  cdiag4          825       0.022      18.191     1.92
elaps:  c-eigvec        352       0.890     313.265    33.10
elaps:  c-buildD        352       0.545     191.716    20.26
elaps:  DHSCF4            1       7.224       7.224     0.76
elaps:  dfscf             1       6.844       6.844     0.72
elaps:  overfsm           1       0.048       0.048     0.01
elaps:  optical           1       0.001       0.001     0.00
  
>> End of run:  10-DEC-2015  23:43:33
