Siesta Version:                                        siesta-3.2-pl-3
Architecture  : x86_64-unknown-linux-gnu--unknown
Compiler flags: mpiifort -g -O2 -fPIC -xSSE4.1 -fp-model source -shared-intel 
PARALLEL version

* Running on    8 nodes in parallel
>> Start of run:   5-DEC-2015   1:27:47

                           ***********************       
                           *  WELCOME TO SIESTA  *       
                           ***********************       

reinit: Reading from standard input
************************** Dump of input data file ****************************
#(1) General system descriptors
SystemName            GRP_doping    # Descriptive name of the system
SystemLabel           GRP_doping    # Short name for naming files
%include STRUCT.fdf
%include KPT.fdf
%include BASIS.fdf
#%include TS.fdf # for transiesta calculation
#(4) DFT, Grid, SCF
XC.functional         GGA           # LDA or GGA (default = LDA)
XC.authors            PBE           # CA (Ceperley-Aldr) = PZ
                                    #    (Perdew-Zunger) - LDA - Default
                                    # PW92 (Perdew-Wang-92) - LDA
                                    # PBE (Perdew-Burke-Ernzerhof) - GGA
MeshCutoff            200.000000    Ry      # Default: 50.0 Ry ~ 0.444 Bohr
                                    #         100.0 Ry ~ 0.314 Bohr
MaxSCFIterations      500           # Default: 50
DM.MixingWeight       0.05          # Default: 0.25
DM.NumberPulay        10            # Default: 0
DM.PulayOnFile        F             # SystemLabel.P1, SystemLabel.P2
DM.Tolerance          1.d-4         # Default: 1.d-4
DM.UseSaveDM          .true.        # because of the bug
SCFMustConverge       .true.
NeglNonOverlapInt     F             # Default: F
#(5) Eigenvalue problem: order-N or diagonalization
SolutionMethod        Diagon        # or Transiesta
ElectronicTemperature 300.0 K       # Default: 300.0 K
#(6) Molecular dynamics and relaxations
#MD.TypeOfRun          CG            # Type of dynamics:
#MD.VariableCell       F
#MD.NumCGsteps         0           # 0 for single-point / 100 for gopt
#MD.MaxCGDispl         0.2 Bohr      # Default: 0.2 Bohr
#MD.MaxForceTol        0.02 eV/Ang   # Default: 0.04 eV/Ang
#MD.MaxStressTol       1.0 GPa       # Default: 1.0 GPa
# Geometry Constraints
#%block GeometryConstraints
#	position from 1 to 44
#%endblock GeometryConstraints
************************** End of input data file *****************************

reinit: -----------------------------------------------------------------------
reinit: System Name: GRP_doping
reinit: -----------------------------------------------------------------------
reinit: System Label: GRP_doping                                                  
reinit: -----------------------------------------------------------------------

initatom: Reading input for the pseudopotentials and atomic orbitals ----------
 Species number:            1  Label: N Atomic number:           7
 Species number:            2  Label: C Atomic number:           6
Ground state valence configuration:   2s02  2p03
Reading pseudopotential information in formatted form from N.psf

Valence configuration for pseudopotential generation:
2s( 2.00) rc: 1.48
2p( 3.00) rc: 1.48
3d( 0.00) rc: 1.48
4f( 0.00) rc: 1.48
Ground state valence configuration:   2s02  2p02
Reading pseudopotential information in formatted form from C.psf

Valence configuration for pseudopotential generation:
2s( 2.00) rc: 1.54
2p( 2.00) rc: 1.54
3d( 0.00) rc: 1.54
4f( 0.00) rc: 1.54
For N, standard SIESTA heuristics set lmxkb to 3
 (one more than the basis l, including polarization orbitals).
Use PS.lmax or PS.KBprojectors blocks to override.
For C, standard SIESTA heuristics set lmxkb to 3
 (one more than the basis l, including polarization orbitals).
Use PS.lmax or PS.KBprojectors blocks to override.

<basis_specs>
===============================================================================
N                    Z=   7    Mass=  14.010        Charge= 0.17977+309
Lmxo=1 Lmxkb= 3    BasisType=split      Semic=F
L=0  Nsemic=0  Cnfigmx=2
          n=1  nzeta=2  polorb=0
            splnorm:   0.15000    
               vcte:    0.0000    
               rinn:    0.0000    
                rcs:    0.0000      0.0000    
            lambdas:    1.0000      1.0000    
L=1  Nsemic=0  Cnfigmx=2
          n=1  nzeta=2  polorb=1
            splnorm:   0.15000    
               vcte:    0.0000    
               rinn:    0.0000    
                rcs:    0.0000      0.0000    
            lambdas:    1.0000      1.0000    
-------------------------------------------------------------------------------
L=0  Nkbl=1  erefs: 0.17977+309
L=1  Nkbl=1  erefs: 0.17977+309
L=2  Nkbl=1  erefs: 0.17977+309
L=3  Nkbl=1  erefs: 0.17977+309
===============================================================================
</basis_specs>

atom: Called for N                     (Z =   7)

read_vps: Pseudopotential generation method:
read_vps: ATM3      Troullier-Martins                       
Total valence charge:    5.00000

read_vps: Pseudopotential includes a core correction:
read_vps: Pseudo-core for xc-correction

xc_check: Exchange-correlation functional:
xc_check: GGA Perdew, Burke & Ernzerhof 1996
V l=0 = -2*Zval/r beyond r=  1.4606
V l=1 = -2*Zval/r beyond r=  1.4606
V l=2 = -2*Zval/r beyond r=  1.4606
V l=3 = -2*Zval/r beyond r=  1.4606
All V_l potentials equal beyond r=  1.4606
This should be close to max(r_c) in ps generation
All pots = -2*Zval/r beyond r=  1.4606

VLOCAL1: 99.0% of the norm of Vloc inside     20.347 Ry
VLOCAL1: 99.9% of the norm of Vloc inside     46.372 Ry
atom: Maximum radius for 4*pi*r*r*local-pseudopot. charge    1.76189
atom: Maximum radius for r*vlocal+2*Zval:    1.53550
GHOST: No ghost state for L =  0
GHOST: No ghost state for L =  1
GHOST: No ghost state for L =  2
GHOST: No ghost state for L =  3

KBgen: Kleinman-Bylander projectors: 
   l= 0   rc=  1.634559   el= -1.363963   Ekb=  5.296955   kbcos=  0.335621
   l= 1   rc=  1.614250   el= -0.521451   Ekb= -5.259161   kbcos= -0.433408
   l= 2   rc=  1.718383   el=  0.001991   Ekb= -1.271464   kbcos= -0.007566
   l= 3   rc=  1.761893   el=  0.003093   Ekb= -0.494769   kbcos= -0.001015

KBgen: Total number of  Kleinman-Bylander projectors:   16
atom: -------------------------------------------------------------------------

atom: SANKEY-TYPE ORBITALS:
atom: Selected multiple-zeta basis: split     

SPLIT: Orbitals with angular momentum L= 0

SPLIT: Basis orbitals for state 2s

SPLIT: PAO cut-off radius determined from an
SPLIT: energy shift=  0.007350 Ry

   izeta = 1
                 lambda =    1.000000
                     rc =    4.071465
                 energy =   -1.356470
                kinetic =    1.176977
    potential(screened) =   -2.533447
       potential(ionic) =   -8.057990

   izeta = 2
                 rmatch =    2.905100
              splitnorm =    0.150000
                 energy =   -1.158343
                kinetic =    1.813009
    potential(screened) =   -2.971352
       potential(ionic) =   -8.901931

SPLIT: Orbitals with angular momentum L= 1

SPLIT: Basis orbitals for state 2p

SPLIT: PAO cut-off radius determined from an
SPLIT: energy shift=  0.007350 Ry

   izeta = 1
                 lambda =    1.000000
                     rc =    4.972977
                 energy =   -0.513884
                kinetic =    3.441732
    potential(screened) =   -3.955616
       potential(ionic) =   -9.287901

   izeta = 2
                 rmatch =    3.054066
              splitnorm =    0.150000
                 energy =   -0.318226
                kinetic =    5.125348
    potential(screened) =   -5.443573
       potential(ionic) =  -11.380999

POLgen: Perturbative polarization orbital with L=  2

POLgen: Polarization orbital for state 2p

   izeta = 1
                     rc =    4.972977
                 energy =    1.607437
                kinetic =    3.268125
    potential(screened) =   -1.660688
       potential(ionic) =   -5.973652
atom: Total number of Sankey-type orbitals: 13

atm_pop: Valence configuration (for local Pseudopot. screening):
 2s( 2.00)                                                            
 2p( 3.00)                                                            
Vna: chval, zval:    5.00000   5.00000

Vna:  Cut-off radius for the neutral-atom potential:   4.972977
comcore: Pseudo-core radius Rcore=  1.554824

atom: _________________________________________________________________________

<basis_specs>
===============================================================================
C                    Z=   6    Mass=  12.010        Charge= 0.17977+309
Lmxo=1 Lmxkb= 3    BasisType=split      Semic=F
L=0  Nsemic=0  Cnfigmx=2
          n=1  nzeta=2  polorb=0
            splnorm:   0.15000    
               vcte:    0.0000    
               rinn:    0.0000    
                rcs:    0.0000      0.0000    
            lambdas:    1.0000      1.0000    
L=1  Nsemic=0  Cnfigmx=2
          n=1  nzeta=2  polorb=1
            splnorm:   0.15000    
               vcte:    0.0000    
               rinn:    0.0000    
                rcs:    0.0000      0.0000    
            lambdas:    1.0000      1.0000    
-------------------------------------------------------------------------------
L=0  Nkbl=1  erefs: 0.17977+309
L=1  Nkbl=1  erefs: 0.17977+309
L=2  Nkbl=1  erefs: 0.17977+309
L=3  Nkbl=1  erefs: 0.17977+309
===============================================================================
</basis_specs>

atom: Called for C                     (Z =   6)

read_vps: Pseudopotential generation method:
read_vps: ATM3      Troullier-Martins                       
Total valence charge:    4.00000

read_vps: Pseudopotential includes a core correction:
read_vps: Pseudo-core for xc-correction

xc_check: Exchange-correlation functional:
xc_check: GGA Perdew, Burke & Ernzerhof 1996
V l=0 = -2*Zval/r beyond r=  1.5227
V l=1 = -2*Zval/r beyond r=  1.5227
V l=2 = -2*Zval/r beyond r=  1.5227
V l=3 = -2*Zval/r beyond r=  1.5038
All V_l potentials equal beyond r=  1.5227
This should be close to max(r_c) in ps generation
All pots = -2*Zval/r beyond r=  1.5227

VLOCAL1: 99.0% of the norm of Vloc inside     18.722 Ry
VLOCAL1: 99.9% of the norm of Vloc inside     42.668 Ry
atom: Maximum radius for 4*pi*r*r*local-pseudopot. charge    1.83678
atom: Maximum radius for r*vlocal+2*Zval:    1.58088
GHOST: No ghost state for L =  0
GHOST: No ghost state for L =  1
GHOST: No ghost state for L =  2
GHOST: No ghost state for L =  3

KBgen: Kleinman-Bylander projectors: 
   l= 0   rc=  1.704034   el= -1.009801   Ekb=  5.335044   kbcos=  0.316824
   l= 1   rc=  1.704034   el= -0.388707   Ekb= -3.785862   kbcos= -0.366464
   l= 2   rc=  1.791422   el=  0.001971   Ekb= -0.970471   kbcos= -0.009212
   l= 3   rc=  1.859892   el=  0.003065   Ekb= -0.399525   kbcos= -0.001223

KBgen: Total number of  Kleinman-Bylander projectors:   16
atom: -------------------------------------------------------------------------

atom: SANKEY-TYPE ORBITALS:
atom: Selected multiple-zeta basis: split     

SPLIT: Orbitals with angular momentum L= 0

SPLIT: Basis orbitals for state 2s

SPLIT: PAO cut-off radius determined from an
SPLIT: energy shift=  0.007350 Ry

   izeta = 1
                 lambda =    1.000000
                     rc =    4.632753
                 energy =   -1.002270
                kinetic =    0.855760
    potential(screened) =   -1.858031
       potential(ionic) =   -5.417575

   izeta = 2
                 rmatch =    3.431921
              splitnorm =    0.150000
                 energy =   -0.867111
                kinetic =    1.300804
    potential(screened) =   -2.167915
       potential(ionic) =   -5.962684

SPLIT: Orbitals with angular momentum L= 1

SPLIT: Basis orbitals for state 2p

SPLIT: PAO cut-off radius determined from an
SPLIT: energy shift=  0.007350 Ry

   izeta = 1
                 lambda =    1.000000
                     rc =    5.658549
                 energy =   -0.381140
                kinetic =    2.399701
    potential(screened) =   -2.780841
       potential(ionic) =   -6.206085

   izeta = 2
                 rmatch =    3.653288
              splitnorm =    0.150000
                 energy =   -0.249149
                kinetic =    3.542762
    potential(screened) =   -3.791911
       potential(ionic) =   -7.581078

POLgen: Perturbative polarization orbital with L=  2

POLgen: Polarization orbital for state 2p

   izeta = 1
                     rc =    5.658549
                 energy =    1.109913
                kinetic =    2.304789
    potential(screened) =   -1.194876
       potential(ionic) =   -4.013592
atom: Total number of Sankey-type orbitals: 13

atm_pop: Valence configuration (for local Pseudopot. screening):
 2s( 2.00)                                                            
 2p( 2.00)                                                            
Vna: chval, zval:    4.00000   4.00000

Vna:  Cut-off radius for the neutral-atom potential:   5.658549
comcore: Pseudo-core radius Rcore=  1.791422

atom: _________________________________________________________________________

prinput: Basis input ----------------------------------------------------------

PAO.BasisType split     

%block ChemicalSpeciesLabel
    1    7 N                       # Species index, atomic number, species label
    2    6 C                       # Species index, atomic number, species label
%endblock ChemicalSpeciesLabel

%block PAO.Basis                 # Define Basis set
N                     2                    # Species label, number of l-shells
 n=2   0   2                         # n, l, Nzeta 
   4.071      2.905   
   1.000      1.000   
 n=2   1   2 P   1                   # n, l, Nzeta, Polarization, NzetaPol
   4.973      3.054   
   1.000      1.000   
C                     2                    # Species label, number of l-shells
 n=2   0   2                         # n, l, Nzeta 
   4.633      3.432   
   1.000      1.000   
 n=2   1   2 P   1                   # n, l, Nzeta, Polarization, NzetaPol
   5.659      3.653   
   1.000      1.000   
%endblock PAO.Basis

prinput: ----------------------------------------------------------------------

coor:   Atomic-coordinates input format  =     Cartesian coordinates
coor:                                          (in Angstroms)

siesta: Atomic coordinates (Bohr) and species
siesta:      2.23554   1.32097   0.00000  1        1
siesta:      4.56367   2.66461   0.00000  1        2
siesta:     34.83141  22.82873   0.00000  1        3
siesta:     11.54782   1.32097   0.00000  1        4
siesta:     13.87595   2.66461   0.00000  1        5
siesta:     20.86199   1.32097   0.00000  1        6
siesta:     23.19013   2.66461   0.00000  1        7
siesta:      6.89193   6.69743   0.00000  1        8
siesta:     16.20421   6.69743   0.00000  1        9
siesta:     25.51838   6.69743   0.00000  1       10
siesta:      6.89205   9.38661   0.00000  1       11
siesta:      9.22019  10.73026   0.00000  1       12
siesta:     16.20434   9.38661   0.00000  1       13
siesta:     18.53247  10.73026   0.00000  1       14
siesta:     11.54845  14.76308   0.00000  1       15
siesta:     20.86262  14.76308   0.00000  1       16
siesta:     11.54857  17.45226   0.00000  1       17
siesta:     13.87670  18.79590   0.00000  1       18
siesta:     16.20496  22.82873   0.00000  1       19
siesta:     25.51851   9.38661   0.00000  1       20
siesta:     27.84664  10.73026   0.00000  1       21
siesta:     20.86274  17.45226   0.00000  1       22
siesta:     23.19088  18.79590   0.00000  1       23
siesta:     30.17490  14.76308   0.00000  1       24
siesta:     25.51913  22.82873   0.00000  1       25
siesta:     30.17503  17.45226   0.00000  1       26
siesta:     32.50316  18.79590   0.00000  1       27
siesta:     32.50328  21.48508   0.00000  2       28
siesta:     34.83116  17.45226   0.00000  2       29
siesta:     37.15930  18.79590   0.00000  2       30
siesta:     32.50291  13.41944   0.00000  2       31
siesta:     34.83104  14.76308   0.00000  2       32
siesta:     30.17465   9.38661   0.00000  2       33
siesta:     32.50278  10.73026   0.00000  2       34
siesta:     27.84639   5.35379   0.00000  2       35
siesta:     30.17453   6.69743   0.00000  2       36
siesta:     27.84714  21.48508   0.00000  2       37
siesta:     30.17527  22.82873   0.00000  2       38
siesta:      6.89168   1.32097   0.00000  2       39
siesta:      9.21981   2.66461   0.00000  2       40
siesta:     16.20396   1.32097   0.00000  2       41
siesta:     18.53210   2.66461   0.00000  2       42
siesta:     25.51813   1.32097   0.00000  2       43
siesta:     27.84627   2.66461   0.00000  2       44
siesta:      4.56380   5.35379   0.00000  2       45
siesta:      9.21994   5.35379   0.00000  2       46
siesta:     11.54807   6.69743   0.00000  2       47
siesta:     13.87608   5.35379   0.00000  2       48
siesta:     18.53411   5.35379   0.00000  2       49
siesta:     20.86224   6.69743   0.00000  2       50
siesta:     23.19025   5.35379   0.00000  2       51
siesta:     11.54820   9.38661   0.00000  2       52
siesta:     13.87633  10.73026   0.00000  2       53
siesta:     20.86237   9.38661   0.00000  2       54
siesta:     23.19050  10.73026   0.00000  2       55
siesta:      9.22031  13.41944   0.00000  2       56
siesta:     13.87645  13.41944   0.00000  2       57
siesta:     16.20459  14.76308   0.00000  2       58
siesta:     18.53448  13.41944   0.00000  2       59
siesta:     16.20471  17.45226   0.00000  2       60
siesta:     18.53284  18.79590   0.00000  2       61
siesta:     13.87683  21.48508   0.00000  2       62
siesta:     18.53486  21.48508   0.00000  2       63
siesta:     20.86299  22.82873   0.00000  2       64
siesta:     23.19063  13.41944   0.00000  2       65
siesta:     25.51876  14.76308   0.00000  2       66
siesta:     27.84677  13.41944   0.00000  2       67
siesta:     25.51888  17.45226   0.00000  2       68
siesta:     27.84702  18.79590   0.00000  2       69
siesta:     23.19100  21.48508   0.00000  2       70
siesta:     37.16131  21.48508   0.00000  2       71
siesta:     39.48945  22.82873   0.00000  2       72

siesta: System type = slab      

initatomlists: Number of atoms, orbitals, and projectors:     72   936  1152

siesta: ******************** Simulation parameters ****************************
siesta:
siesta: The following are some of the parameters of the simulation.
siesta: A complete list of the parameters used, including default values,
siesta: can be found in file out.fdf
siesta:
redata: Non-Collinear-spin run           =     F
redata: SpinPolarized (Up/Down) run      =     F
redata: Number of spin components        =     1
redata: Long output                      =     F
redata: Number of Atomic Species         =        2
redata: Charge density info will appear in .RHO file
redata: Write Mulliken Pop.              =     NO
redata: Mesh Cutoff                      =   200.0000  Ry
redata: Net charge of the system         =     0.0000 |e|
redata: Max. number of SCF Iter          =      500
redata: SCF convergence failure will abort job
redata: Performing Pulay mixing using    =    10 iterations
redata: Mix DM in first SCF step ?       =     F
redata: Write Pulay info on disk?        =     F
redata: Discard 1st Pulay DM after  kick =     F
redata: New DM Mixing Weight             =     0.0500
redata: New DM Occupancy tolerance       = 0.000000000001
redata: No kicks to SCF
redata: DM Mixing Weight for Kicks       =     0.5000
redata: DM Tolerance for SCF             =     0.000100
redata: Require Energy convergence for SCF =     F
redata: DM Energy tolerance for SCF      =     0.000100 eV
redata: Require Harris convergence for SCF =     F
redata: DM Harris energy tolerance for SCF =     0.000100 eV
redata: Using Saved Data (generic)   =     F
redata: Use continuation files for DM    =     T
redata: Neglect nonoverlap interactions  =     F
redata: Method of Calculation            =     Diagonalization
redata: Divide and Conquer               =     T
redata: Electronic Temperature           =     0.0019  Ry
redata: Fix the spin of the system       =     F
redata: Dynamics option                  =     Verlet MD run
redata: Initial MD time step             =        1
redata:   Final MD time step             =        1
redata: Length of MD time step           =     1.0000  fs
redata: Initial Temperature of MD run    =     0.0000  K
redata: Perform a MD quench              =     F
redata: ***********************************************************************
Total number of electrons:   315.000000
Total ionic charge:   315.000000

* ProcessorY, Blocksize:    2  24

k-point displ. along   1 input, could be:     0.00    0.50
k-point displ. along   2 input, could be:     0.00    0.50
 Kpoints in:          364 . Kpoints trimmed:          352

siesta: k-grid: Number of k-points =   352
siesta: k-grid: Cutoff (effective) =     5.000 Ang
siesta: k-grid: Supercell and displacements
siesta: k-grid:   26   0   0      0.000
siesta: k-grid:    0  26   0      0.000
siesta: k-grid:    0   0   1      0.000
Naive supercell factors:     2    2    2

superc: Internal auxiliary supercell:     2 x     2 x     2  =       8
superc: Number of atoms, orbitals, and projectors:    576   7488   9216

* Maximum dynamic memory allocated =     6 MB

siesta:                 ==============================
                            Begin MD step =      1
                        ==============================

superc: Internal auxiliary supercell:     2 x     2 x     2  =       8
superc: Number of atoms, orbitals, and projectors:    576   7488   9216

outcell: Unit cell vectors (Ang):
       14.785000    0.000000    0.000000
        7.393000   12.805052    0.000000
        0.000000    0.000000   10.000000

outcell: Cell vector modules (Ang)   :   14.785000   14.786000   10.000000
outcell: Cell angles (23,13,12) (deg):     90.0000     90.0000     60.0000
outcell: Cell volume (Ang**3)        :   1893.2269
New_DM. Step:     1
Initializing Density Matrix...

InitMesh: MESH =   120 x   120 x    90 =     1296000
InitMesh: Mesh cutoff (required, used) =   200.000   223.865 Ry

* Maximum dynamic memory allocated =   175 MB

stepf: Fermi-Dirac step function

siesta: Program's energy decomposition (eV):
siesta: Ebs     =     -4917.275275
siesta: Eions   =     22743.175864
siesta: Ena     =      4241.494491
siesta: Ekin    =      8644.090471
siesta: Enl     =      -528.042655
siesta: DEna    =        -0.000012
siesta: DUscf   =         0.000000
siesta: DUext   =         0.000000
siesta: Exc     =     -4604.500982
siesta: eta*DQ  =         0.000000
siesta: Emadel  =         0.000000
siesta: Emeta   =         0.000000
siesta: Emolmec =         0.000000
siesta: Ekinion =         0.000000
siesta: Eharris =    -14839.896434
siesta: Etot    =    -14990.134551
siesta: FreeEng =    -14990.134551

siesta: iscf   Eharris(eV)      E_KS(eV)   FreeEng(eV)   dDmax  Ef(eV)
siesta:    1   -14839.8964   -14990.1346   -14990.1346  1.8861 -3.6712
timer: Routine,Calls,Time,% = IterSCF        1    7465.057  99.85
elaps: Routine,Calls,Wall,% = IterSCF        1     934.503  99.85
siesta:    2   -14877.6334   -14800.6411   -14800.6726  0.2588 -3.0573
siesta:    3   -14840.7875   -14836.4934   -14836.5363  0.2765 -3.0084
siesta:    4   -14830.2563   -14826.5727   -14826.6242  0.1613 -2.7548
siesta:    5   -14825.2113   -14820.9722   -14821.0239  0.1334 -2.6169
siesta:    6   -14823.1628   -14819.3567   -14819.3986  0.1117 -2.5829
siesta:    7   -14822.1532   -14819.5791   -14819.6120  0.0410 -2.6879
siesta:    8   -14822.1680   -14820.1411   -14820.1735  0.0237 -2.7419
siesta:    9   -14822.1279   -14821.2161   -14821.2488  0.0219 -2.8104
siesta:   10   -14822.0880   -14821.3066   -14821.3390  0.0096 -2.8103
siesta:   11   -14822.0823   -14821.2868   -14821.3184  0.0079 -2.8031
siesta:   12   -14822.0780   -14821.7792   -14821.8109  0.0026 -2.7970
siesta:   13   -14822.0777   -14821.7945   -14821.8263  0.0018 -2.7957
siesta:   14   -14822.0769   -14821.9364   -14821.9682  0.0005 -2.7947
siesta:   15   -14822.0768   -14821.9540   -14821.9858  0.0007 -2.7952
siesta:   16   -14822.0768   -14821.9801   -14822.0119  0.0004 -2.7949
siesta:   17   -14822.0768   -14822.0439   -14822.0757  0.0002 -2.7948
siesta:   18   -14822.0768   -14822.0543   -14822.0861  0.0001 -2.7948
siesta:   19   -14822.0768   -14822.0643   -14822.0960  0.0001 -2.7948

siesta: E_KS(eV) =           -14822.0725

siesta: E_KS - E_eggbox =    -14822.0725

siesta: Atomic forces (eV/Ang):
----------------------------------------
   Tot    0.504851    0.335230    0.000000
----------------------------------------
   Max    1.211368
   Res    0.451120    sqrt( Sum f_i^2 / 3N )
----------------------------------------
   Max    1.211368    constrained

Stress-tensor-Voigt (kbar):       52.46       55.56        0.34        2.18        0.00        0.00
(Free)E + p*V (eV/cell)   -14864.7893
Target enthalpy (eV/cell)   -14822.1043

siesta: Stress tensor (static) (eV/Ang**3):
         0.032743    0.001360    0.000000
         0.001360    0.034681    0.000000
         0.000000    0.000000    0.000215

siesta: Pressure (static):        -36.12330435  kBar

siesta: Stress tensor (total) (eV/Ang**3):
         0.032743    0.001360    0.000000
         0.001360    0.034681    0.000000
         0.000000    0.000000    0.000215

siesta: Pressure (total):        -36.12330435  kBar

siesta: Temp_ion =       0.000 K

* Maximum dynamic memory allocated =   190 MB

siesta: Program's energy decomposition (eV):
siesta: Ebs     =     -4668.178832
siesta: Eions   =     22743.175864
siesta: Ena     =      4241.494491
siesta: Ekin    =     10097.756653
siesta: Enl     =     -1592.292207
siesta: DEna    =      -175.751341
siesta: DUscf   =        24.538459
siesta: DUext   =         0.000000
siesta: Exc     =     -4674.642716
siesta: eta*DQ  =         0.000000
siesta: Emadel  =         0.000000
siesta: Emeta   =         0.000000
siesta: Emolmec =         0.000000
siesta: Ekinion =         0.000000
siesta: Eharris =    -14822.076805
siesta: Etot    =    -14822.072523
siesta: FreeEng =    -14822.104298

siesta: Final energy (eV):
siesta:  Band Struct. =   -4668.178832
siesta:       Kinetic =   10097.756653
siesta:       Hartree =   28297.878127
siesta:    Ext. field =       0.000000
siesta:   Exch.-corr. =   -4674.642716
siesta:  Ion-electron =  -66080.407405
siesta:       Ion-ion =   17537.342818
siesta:       Ekinion =       0.000000
siesta:         Total =  -14822.072523

siesta: Atomic forces (eV/Ang):
siesta:      1   -0.472492    0.246637    0.000000
siesta:      2    1.176318    0.022771    0.000000
siesta:      3    0.644816   -0.964494    0.000000
siesta:      4   -0.448056    0.241721    0.000000
siesta:      5    1.178661    0.027214    0.000000
siesta:      6   -0.486004    0.246655    0.000000
siesta:      7    1.176425    0.021682    0.000000
siesta:      8    0.609717   -0.973469    0.000000
siesta:      9    0.636195   -0.978658    0.000000
siesta:     10    0.613244   -0.974199    0.000000
siesta:     11   -0.462803    0.261191    0.000000
siesta:     12    1.177926    0.028851    0.000000
siesta:     13   -0.449224    0.262666    0.000000
siesta:     14    1.211368    0.019286    0.000000
siesta:     15    0.611005   -0.973626    0.000000
siesta:     16    0.606496   -0.977002    0.000000
siesta:     17   -0.463721    0.259820    0.000000
siesta:     18    1.178154    0.028789    0.000000
siesta:     19    0.646630   -0.964648    0.000000
siesta:     20   -0.452907    0.258389    0.000000
siesta:     21    1.178987    0.028496    0.000000
siesta:     22   -0.477199    0.261798    0.000000
siesta:     23    1.176032    0.029551    0.000000
siesta:     24    0.612346   -0.973181    0.000000
siesta:     25    0.607949   -0.958002    0.000000
siesta:     26   -0.451232    0.260031    0.000000
siesta:     27    1.177986    0.028761    0.000000
siesta:     28   -0.777252    0.444974    0.000000
siesta:     29    0.061390   -0.390858    0.000000
siesta:     30   -0.722128    0.438454    0.000000
siesta:     31    0.359414    0.131654    0.000000
siesta:     32   -0.163087    0.102756    0.000000
siesta:     33    0.060648   -0.395094    0.000000
siesta:     34   -0.731816    0.435284    0.000000
siesta:     35    0.359063    0.133238    0.000000
siesta:     36   -0.164659    0.102890    0.000000
siesta:     37    0.357601    0.134939    0.000000
siesta:     38   -0.177870    0.128208    0.000000
siesta:     39    0.062738   -0.412554    0.000000
siesta:     40   -0.743913    0.433845    0.000000
siesta:     41    0.067090   -0.411722    0.000000
siesta:     42   -0.710982    0.432699    0.000000
siesta:     43    0.063323   -0.411379    0.000000
siesta:     44   -0.731071    0.433212    0.000000
siesta:     45   -0.792354    0.443442    0.000000
siesta:     46    0.357662    0.132866    0.000000
siesta:     47   -0.176624    0.107049    0.000000
siesta:     48   -0.776277    0.437621    0.000000
siesta:     49    0.325467    0.137230    0.000000
siesta:     50   -0.179535    0.106443    0.000000
siesta:     51   -0.781152    0.438081    0.000000
siesta:     52    0.058386   -0.392241    0.000000
siesta:     53   -0.740760    0.437247    0.000000
siesta:     54    0.036539   -0.387864    0.000000
siesta:     55   -0.745356    0.438486    0.000000
siesta:     56   -0.792673    0.444487    0.000000
siesta:     57    0.360868    0.132723    0.000000
siesta:     58   -0.148192    0.101707    0.000000
siesta:     59   -0.817076    0.450820    0.000000
siesta:     60    0.062176   -0.393138    0.000000
siesta:     61   -0.710373    0.435339    0.000000
siesta:     62   -0.762771    0.438974    0.000000
siesta:     63    0.323448    0.135922    0.000000
siesta:     64   -0.181245    0.127048    0.000000
siesta:     65    0.356974    0.132232    0.000000
siesta:     66   -0.175431    0.107629    0.000000
siesta:     67   -0.780620    0.439637    0.000000
siesta:     68    0.058061   -0.392892    0.000000
siesta:     69   -0.741524    0.438319    0.000000
siesta:     70   -0.781910    0.441916    0.000000
siesta:     71    0.320262    0.136360    0.000000
siesta:     72   -0.196222    0.132209    0.000000
siesta: ----------------------------------------
siesta:    Tot    0.504851    0.335230    0.000000

siesta: Stress tensor (static) (eV/Ang**3):
siesta:     0.032743    0.001360    0.000000
siesta:     0.001360    0.034681    0.000000
siesta:     0.000000    0.000000    0.000215

siesta: Cell volume =       1893.226895 Ang**3

siesta: Pressure (static):
siesta:                Solid            Molecule  Units
siesta:          -0.00024556         -0.00022734  Ry/Bohr**3
siesta:          -0.02254615         -0.02087344  eV/Ang**3
siesta:         -36.12330435        -33.44330647  kBar
(Free)E+ p_basis*V_orbitals  =      -14795.226697
(Free)Eharris+ p_basis*V_orbitals  =      -14795.239236

siesta: Electric dipole (a.u.)  =    0.000000    0.000000    0.000000
siesta: Electric dipole (Debye) =    0.000000    0.000000    0.000000

* Maximum dynamic memory allocated : Node    0 =   190 MB
* Maximum dynamic memory allocated : Node    1 =    71 MB
* Maximum dynamic memory allocated : Node    2 =    72 MB
* Maximum dynamic memory allocated : Node    3 =   180 MB
* Maximum dynamic memory allocated : Node    4 =   189 MB
* Maximum dynamic memory allocated : Node    5 =    70 MB
* Maximum dynamic memory allocated : Node    6 =    72 MB
* Maximum dynamic memory allocated : Node    7 =   175 MB

* Maximum memory occured during matrixMtoO                    

timer: CPU execution times:
timer:  Routine       Calls   Time/call    Tot.time        %
timer:  siesta            1  140780.271  140780.271   100.00
timer:  Setup             1       3.087       3.087     0.00
timer:  bands             1       0.009       0.009     0.00
timer:  writewave         1       0.019       0.019     0.00
timer:  KSV_init          1       0.000       0.000     0.00
timer:  IterMD            1  140769.022  140769.022    99.99
timer:  hsparse           1       0.262       0.262     0.00
timer:  overlap           1       7.676       7.676     0.01
timer:  IterSCF          19    7401.150  140621.844    99.89
timer:  kinefsm           2       3.951       7.902     0.01
timer:  nlefsm            2      17.553      35.107     0.02
timer:  DHSCF            20      80.497    1609.931     1.14
timer:  DHSCF1            1       0.819       0.819     0.00
timer:  DHSCF2            1      32.908      32.908     0.02
timer:  REORD           162       0.014       2.210     0.00
timer:  POISON           21       3.735      78.427     0.06
timer:  DHSCF3           20      77.362    1547.244     1.10
timer:  rhoofd           20      14.086     281.718     0.20
timer:  cellXC           20       3.631      72.621     0.05
timer:  vmat             20      37.229     744.589     0.53
timer:  MolMec            2       0.000       0.000     0.00
timer:  diagon           19    7318.918  139059.435    98.78
timer:  c-eigval       6688       7.222   48298.423    34.31
timer:  c-buildHS      6688       0.205    1371.630     0.97
timer:  cdiag         13376       7.409   99101.764    70.39
timer:  cdiag1        13376       0.458    6124.704     4.35
timer:  cdiag2        13376       1.969   26338.767    18.71
timer:  cdiag3        13376       4.180   55914.219    39.72
timer:  cdiag4        13376       0.249    3333.340     2.37
timer:  c-eigvec       6688       7.889   52763.033    37.48
timer:  c-buildD       6688       5.670   37919.676    26.94
timer:  DHSCF4            1      27.205      27.205     0.02
timer:  dfscf             1      25.434      25.434     0.02
timer:  overfsm           1       0.365       0.365     0.00
timer:  optical           1       7.133       7.133     0.01
  

elaps: ELAPSED times:
elaps:  Routine       Calls   Time/call    Tot.time        %
elaps:  siesta            1   17622.501   17622.501   100.00
elaps:  Setup             1       0.386       0.386     0.00
elaps:  bands             1       0.001       0.001     0.00
elaps:  writewave         1       0.002       0.002     0.00
elaps:  KSV_init          1       0.000       0.000     0.00
elaps:  IterMD            1   17621.094   17621.094    99.99
elaps:  hsparse           1       0.034       0.034     0.00
elaps:  overlap           1       0.962       0.962     0.01
elaps:  IterSCF          19     926.457   17602.685    99.89
elaps:  kinefsm           2       0.494       0.988     0.01
elaps:  nlefsm            2       2.207       4.414     0.03
elaps:  DHSCF            20      10.218     204.369     1.16
elaps:  DHSCF1            1       0.108       0.108     0.00
elaps:  DHSCF2            1       4.120       4.120     0.02
elaps:  REORD           162       0.002       0.291     0.00
elaps:  POISON           21       0.469       9.850     0.06
elaps:  DHSCF3           20       9.679     193.577     1.10
elaps:  rhoofd           20       3.040      60.796     0.34
elaps:  cellXC           20       0.452       9.049     0.05
elaps:  vmat             20       4.657      93.149     0.53
elaps:  MolMec            2       0.000       0.000     0.00
elaps:  diagon           19     916.200   17407.808    98.78
elaps:  c-eigval       6688       0.904    6043.707    34.30
elaps:  c-buildHS      6688       0.027     181.473     1.03
elaps:  cdiag         13376       0.909   12156.396    68.98
elaps:  cdiag1        13376       0.057     758.865     4.31
elaps:  cdiag2        13376       0.246    3295.867    18.70
elaps:  cdiag3        13376       0.524    7007.200    39.76
elaps:  cdiag4        13376       0.032     434.522     2.47
elaps:  c-eigvec       6688       0.954    6381.309    36.21
elaps:  c-buildD       6688       0.743    4971.500    28.21
elaps:  DHSCF4            1       6.324       6.324     0.04
elaps:  dfscf             1       5.962       5.962     0.03
elaps:  overfsm           1       0.046       0.046     0.00
elaps:  optical           1       0.000       0.000     0.00
  
>> End of run:   5-DEC-2015   6:21:30
