Siesta Version:                                        siesta-3.2-pl-3
Architecture  : x86_64-unknown-linux-gnu--unknown
Compiler flags: mpiifort -g -O2 -fPIC -xSSE4.1 -fp-model source -shared-intel 
PARALLEL version

* Running on    8 nodes in parallel
>> Start of run:   6-DEC-2015  16:02:25

                           ***********************       
                           *  WELCOME TO SIESTA  *       
                           ***********************       

reinit: Reading from standard input
************************** Dump of input data file ****************************
#(1) General system descriptors
SystemName            GRP_doping    # Descriptive name of the system
SystemLabel           GRP_doping    # Short name for naming files
%include STRUCT.fdf
%include KPT.fdf
%include BASIS.fdf
#%include TS.fdf # for transiesta calculation
#(4) DFT, Grid, SCF
XC.functional         GGA           # LDA or GGA (default = LDA)
XC.authors            PBE           # CA (Ceperley-Aldr) = PZ
                                    #    (Perdew-Zunger) - LDA - Default
                                    # PW92 (Perdew-Wang-92) - LDA
                                    # PBE (Perdew-Burke-Ernzerhof) - GGA
MeshCutoff            200.000000    Ry      # Default: 50.0 Ry ~ 0.444 Bohr
                                    #         100.0 Ry ~ 0.314 Bohr
MaxSCFIterations      500           # Default: 50
DM.MixingWeight       0.05          # Default: 0.25
DM.NumberPulay        10            # Default: 0
DM.PulayOnFile        F             # SystemLabel.P1, SystemLabel.P2
DM.Tolerance          1.d-4         # Default: 1.d-4
DM.UseSaveDM          .true.        # because of the bug
SCFMustConverge       .true.
NeglNonOverlapInt     F             # Default: F
#(5) Eigenvalue problem: order-N or diagonalization
SolutionMethod        Diagon        # or Transiesta
ElectronicTemperature 300.0 K       # Default: 300.0 K
#(6) Molecular dynamics and relaxations
#MD.TypeOfRun          CG            # Type of dynamics:
#MD.VariableCell       F
#MD.NumCGsteps         0           # 0 for single-point / 100 for gopt
#MD.MaxCGDispl         0.2 Bohr      # Default: 0.2 Bohr
#MD.MaxForceTol        0.02 eV/Ang   # Default: 0.04 eV/Ang
#MD.MaxStressTol       1.0 GPa       # Default: 1.0 GPa
# Geometry Constraints
#%block GeometryConstraints
#	position from 1 to 44
#%endblock GeometryConstraints
************************** End of input data file *****************************

reinit: -----------------------------------------------------------------------
reinit: System Name: GRP_doping
reinit: -----------------------------------------------------------------------
reinit: System Label: GRP_doping                                                  
reinit: -----------------------------------------------------------------------

initatom: Reading input for the pseudopotentials and atomic orbitals ----------
 Species number:            1  Label: C Atomic number:           6
 Species number:            2  Label: N Atomic number:           7
Ground state valence configuration:   2s02  2p02
Reading pseudopotential information in formatted form from C.psf

Valence configuration for pseudopotential generation:
2s( 2.00) rc: 1.54
2p( 2.00) rc: 1.54
3d( 0.00) rc: 1.54
4f( 0.00) rc: 1.54
Ground state valence configuration:   2s02  2p03
Reading pseudopotential information in formatted form from N.psf

Valence configuration for pseudopotential generation:
2s( 2.00) rc: 1.48
2p( 3.00) rc: 1.48
3d( 0.00) rc: 1.48
4f( 0.00) rc: 1.48
For C, standard SIESTA heuristics set lmxkb to 3
 (one more than the basis l, including polarization orbitals).
Use PS.lmax or PS.KBprojectors blocks to override.
For N, standard SIESTA heuristics set lmxkb to 3
 (one more than the basis l, including polarization orbitals).
Use PS.lmax or PS.KBprojectors blocks to override.

<basis_specs>
===============================================================================
C                    Z=   6    Mass=  12.010        Charge= 0.17977+309
Lmxo=1 Lmxkb= 3    BasisType=split      Semic=F
L=0  Nsemic=0  Cnfigmx=2
          n=1  nzeta=2  polorb=0
            splnorm:   0.15000    
               vcte:    0.0000    
               rinn:    0.0000    
                rcs:    0.0000      0.0000    
            lambdas:    1.0000      1.0000    
L=1  Nsemic=0  Cnfigmx=2
          n=1  nzeta=2  polorb=1
            splnorm:   0.15000    
               vcte:    0.0000    
               rinn:    0.0000    
                rcs:    0.0000      0.0000    
            lambdas:    1.0000      1.0000    
-------------------------------------------------------------------------------
L=0  Nkbl=1  erefs: 0.17977+309
L=1  Nkbl=1  erefs: 0.17977+309
L=2  Nkbl=1  erefs: 0.17977+309
L=3  Nkbl=1  erefs: 0.17977+309
===============================================================================
</basis_specs>

atom: Called for C                     (Z =   6)

read_vps: Pseudopotential generation method:
read_vps: ATM3      Troullier-Martins                       
Total valence charge:    4.00000

read_vps: Pseudopotential includes a core correction:
read_vps: Pseudo-core for xc-correction

xc_check: Exchange-correlation functional:
xc_check: GGA Perdew, Burke & Ernzerhof 1996
V l=0 = -2*Zval/r beyond r=  1.5227
V l=1 = -2*Zval/r beyond r=  1.5227
V l=2 = -2*Zval/r beyond r=  1.5227
V l=3 = -2*Zval/r beyond r=  1.5038
All V_l potentials equal beyond r=  1.5227
This should be close to max(r_c) in ps generation
All pots = -2*Zval/r beyond r=  1.5227

VLOCAL1: 99.0% of the norm of Vloc inside     18.722 Ry
VLOCAL1: 99.9% of the norm of Vloc inside     42.668 Ry
atom: Maximum radius for 4*pi*r*r*local-pseudopot. charge    1.83678
atom: Maximum radius for r*vlocal+2*Zval:    1.58088
GHOST: No ghost state for L =  0
GHOST: No ghost state for L =  1
GHOST: No ghost state for L =  2
GHOST: No ghost state for L =  3

KBgen: Kleinman-Bylander projectors: 
   l= 0   rc=  1.704034   el= -1.009801   Ekb=  5.335044   kbcos=  0.316824
   l= 1   rc=  1.704034   el= -0.388707   Ekb= -3.785862   kbcos= -0.366464
   l= 2   rc=  1.791422   el=  0.001971   Ekb= -0.970471   kbcos= -0.009212
   l= 3   rc=  1.859892   el=  0.003065   Ekb= -0.399525   kbcos= -0.001223

KBgen: Total number of  Kleinman-Bylander projectors:   16
atom: -------------------------------------------------------------------------

atom: SANKEY-TYPE ORBITALS:
atom: Selected multiple-zeta basis: split     

SPLIT: Orbitals with angular momentum L= 0

SPLIT: Basis orbitals for state 2s

SPLIT: PAO cut-off radius determined from an
SPLIT: energy shift=  0.007350 Ry

   izeta = 1
                 lambda =    1.000000
                     rc =    4.632753
                 energy =   -1.002270
                kinetic =    0.855760
    potential(screened) =   -1.858031
       potential(ionic) =   -5.417575

   izeta = 2
                 rmatch =    3.431921
              splitnorm =    0.150000
                 energy =   -0.867111
                kinetic =    1.300804
    potential(screened) =   -2.167915
       potential(ionic) =   -5.962684

SPLIT: Orbitals with angular momentum L= 1

SPLIT: Basis orbitals for state 2p

SPLIT: PAO cut-off radius determined from an
SPLIT: energy shift=  0.007350 Ry

   izeta = 1
                 lambda =    1.000000
                     rc =    5.658549
                 energy =   -0.381140
                kinetic =    2.399701
    potential(screened) =   -2.780841
       potential(ionic) =   -6.206085

   izeta = 2
                 rmatch =    3.653288
              splitnorm =    0.150000
                 energy =   -0.249149
                kinetic =    3.542762
    potential(screened) =   -3.791911
       potential(ionic) =   -7.581078

POLgen: Perturbative polarization orbital with L=  2

POLgen: Polarization orbital for state 2p

   izeta = 1
                     rc =    5.658549
                 energy =    1.109913
                kinetic =    2.304789
    potential(screened) =   -1.194876
       potential(ionic) =   -4.013592
atom: Total number of Sankey-type orbitals: 13

atm_pop: Valence configuration (for local Pseudopot. screening):
 2s( 2.00)                                                            
 2p( 2.00)                                                            
Vna: chval, zval:    4.00000   4.00000

Vna:  Cut-off radius for the neutral-atom potential:   5.658549
comcore: Pseudo-core radius Rcore=  1.791422

atom: _________________________________________________________________________

<basis_specs>
===============================================================================
N                    Z=   7    Mass=  14.010        Charge= 0.17977+309
Lmxo=1 Lmxkb= 3    BasisType=split      Semic=F
L=0  Nsemic=0  Cnfigmx=2
          n=1  nzeta=2  polorb=0
            splnorm:   0.15000    
               vcte:    0.0000    
               rinn:    0.0000    
                rcs:    0.0000      0.0000    
            lambdas:    1.0000      1.0000    
L=1  Nsemic=0  Cnfigmx=2
          n=1  nzeta=2  polorb=1
            splnorm:   0.15000    
               vcte:    0.0000    
               rinn:    0.0000    
                rcs:    0.0000      0.0000    
            lambdas:    1.0000      1.0000    
-------------------------------------------------------------------------------
L=0  Nkbl=1  erefs: 0.17977+309
L=1  Nkbl=1  erefs: 0.17977+309
L=2  Nkbl=1  erefs: 0.17977+309
L=3  Nkbl=1  erefs: 0.17977+309
===============================================================================
</basis_specs>

atom: Called for N                     (Z =   7)

read_vps: Pseudopotential generation method:
read_vps: ATM3      Troullier-Martins                       
Total valence charge:    5.00000

read_vps: Pseudopotential includes a core correction:
read_vps: Pseudo-core for xc-correction

xc_check: Exchange-correlation functional:
xc_check: GGA Perdew, Burke & Ernzerhof 1996
V l=0 = -2*Zval/r beyond r=  1.4606
V l=1 = -2*Zval/r beyond r=  1.4606
V l=2 = -2*Zval/r beyond r=  1.4606
V l=3 = -2*Zval/r beyond r=  1.4606
All V_l potentials equal beyond r=  1.4606
This should be close to max(r_c) in ps generation
All pots = -2*Zval/r beyond r=  1.4606

VLOCAL1: 99.0% of the norm of Vloc inside     20.347 Ry
VLOCAL1: 99.9% of the norm of Vloc inside     46.372 Ry
atom: Maximum radius for 4*pi*r*r*local-pseudopot. charge    1.76189
atom: Maximum radius for r*vlocal+2*Zval:    1.53550
GHOST: No ghost state for L =  0
GHOST: No ghost state for L =  1
GHOST: No ghost state for L =  2
GHOST: No ghost state for L =  3

KBgen: Kleinman-Bylander projectors: 
   l= 0   rc=  1.634559   el= -1.363963   Ekb=  5.296955   kbcos=  0.335621
   l= 1   rc=  1.614250   el= -0.521451   Ekb= -5.259161   kbcos= -0.433408
   l= 2   rc=  1.718383   el=  0.001991   Ekb= -1.271464   kbcos= -0.007566
   l= 3   rc=  1.761893   el=  0.003093   Ekb= -0.494769   kbcos= -0.001015

KBgen: Total number of  Kleinman-Bylander projectors:   16
atom: -------------------------------------------------------------------------

atom: SANKEY-TYPE ORBITALS:
atom: Selected multiple-zeta basis: split     

SPLIT: Orbitals with angular momentum L= 0

SPLIT: Basis orbitals for state 2s

SPLIT: PAO cut-off radius determined from an
SPLIT: energy shift=  0.007350 Ry

   izeta = 1
                 lambda =    1.000000
                     rc =    4.071465
                 energy =   -1.356470
                kinetic =    1.176977
    potential(screened) =   -2.533447
       potential(ionic) =   -8.057990

   izeta = 2
                 rmatch =    2.905100
              splitnorm =    0.150000
                 energy =   -1.158343
                kinetic =    1.813009
    potential(screened) =   -2.971352
       potential(ionic) =   -8.901931

SPLIT: Orbitals with angular momentum L= 1

SPLIT: Basis orbitals for state 2p

SPLIT: PAO cut-off radius determined from an
SPLIT: energy shift=  0.007350 Ry

   izeta = 1
                 lambda =    1.000000
                     rc =    4.972977
                 energy =   -0.513884
                kinetic =    3.441732
    potential(screened) =   -3.955616
       potential(ionic) =   -9.287901

   izeta = 2
                 rmatch =    3.054066
              splitnorm =    0.150000
                 energy =   -0.318226
                kinetic =    5.125348
    potential(screened) =   -5.443573
       potential(ionic) =  -11.380999

POLgen: Perturbative polarization orbital with L=  2

POLgen: Polarization orbital for state 2p

   izeta = 1
                     rc =    4.972977
                 energy =    1.607437
                kinetic =    3.268125
    potential(screened) =   -1.660688
       potential(ionic) =   -5.973652
atom: Total number of Sankey-type orbitals: 13

atm_pop: Valence configuration (for local Pseudopot. screening):
 2s( 2.00)                                                            
 2p( 3.00)                                                            
Vna: chval, zval:    5.00000   5.00000

Vna:  Cut-off radius for the neutral-atom potential:   4.972977
comcore: Pseudo-core radius Rcore=  1.554824

atom: _________________________________________________________________________

prinput: Basis input ----------------------------------------------------------

PAO.BasisType split     

%block ChemicalSpeciesLabel
    1    6 C                       # Species index, atomic number, species label
    2    7 N                       # Species index, atomic number, species label
%endblock ChemicalSpeciesLabel

%block PAO.Basis                 # Define Basis set
C                     2                    # Species label, number of l-shells
 n=2   0   2                         # n, l, Nzeta 
   4.633      3.432   
   1.000      1.000   
 n=2   1   2 P   1                   # n, l, Nzeta, Polarization, NzetaPol
   5.659      3.653   
   1.000      1.000   
N                     2                    # Species label, number of l-shells
 n=2   0   2                         # n, l, Nzeta 
   4.071      2.905   
   1.000      1.000   
 n=2   1   2 P   1                   # n, l, Nzeta, Polarization, NzetaPol
   4.973      3.054   
   1.000      1.000   
%endblock PAO.Basis

prinput: ----------------------------------------------------------------------

coor:   Atomic-coordinates input format  =     Cartesian coordinates
coor:                                          (in Angstroms)

siesta: Atomic coordinates (Bohr) and species
siesta:      2.23554   1.32097   0.00000  1        1
siesta:      4.56367   2.66461   0.00000  1        2
siesta:     32.50328  21.48508   0.00000  1        3
siesta:     34.83141  22.82873   0.00000  1        4
siesta:     34.83116  17.45226   0.00000  1        5
siesta:     37.15930  18.79590   0.00000  1        6
siesta:     32.50291  13.41944   0.00000  1        7
siesta:     34.83104  14.76308   0.00000  1        8
siesta:     30.17465   9.38661   0.00000  1        9
siesta:     32.50278  10.73026   0.00000  1       10
siesta:     27.84639   5.35379   0.00000  1       11
siesta:     30.17453   6.69743   0.00000  1       12
siesta:     27.84714  21.48508   0.00000  1       13
siesta:     30.17527  22.82873   0.00000  1       14
siesta:      6.89168   1.32097   0.00000  1       15
siesta:      9.21981   2.66461   0.00000  1       16
siesta:     11.54782   1.32097   0.00000  1       17
siesta:     13.87595   2.66461   0.00000  1       18
siesta:     16.20396   1.32097   0.00000  1       19
siesta:     18.53210   2.66461   0.00000  1       20
siesta:     20.86199   1.32097   0.00000  1       21
siesta:     23.19013   2.66461   0.00000  1       22
siesta:     25.51813   1.32097   0.00000  1       23
siesta:     27.84627   2.66461   0.00000  1       24
siesta:      4.56380   5.35379   0.00000  1       25
siesta:      6.89193   6.69743   0.00000  1       26
siesta:      9.21994   5.35379   0.00000  1       27
siesta:     11.54807   6.69743   0.00000  1       28
siesta:     13.87608   5.35379   0.00000  1       29
siesta:      6.89205   9.38661   0.00000  1       30
siesta:      9.22019  10.73026   0.00000  1       31
siesta:     11.54820   9.38661   0.00000  1       32
siesta:     18.53247  10.73026   0.00000  1       33
siesta:     20.86237   9.38661   0.00000  1       34
siesta:     23.19050  10.73026   0.00000  1       35
siesta:      9.22031  13.41944   0.00000  1       36
siesta:     11.54845  14.76308   0.00000  1       37
siesta:     18.53448  13.41944   0.00000  1       38
siesta:     20.86262  14.76308   0.00000  1       39
siesta:     11.54857  17.45226   0.00000  1       40
siesta:     13.87670  18.79590   0.00000  1       41
siesta:     13.87683  21.48508   0.00000  1       42
siesta:     16.20496  22.82873   0.00000  1       43
siesta:     18.53486  21.48508   0.00000  1       44
siesta:     20.86299  22.82873   0.00000  1       45
siesta:     23.19063  13.41944   0.00000  1       46
siesta:     30.17490  14.76308   0.00000  1       47
siesta:     27.84702  18.79590   0.00000  1       48
siesta:     23.19100  21.48508   0.00000  1       49
siesta:     25.51913  22.82873   0.00000  1       50
siesta:     30.17503  17.45226   0.00000  1       51
siesta:     32.50316  18.79590   0.00000  1       52
siesta:     37.16131  21.48508   0.00000  1       53
siesta:     39.48945  22.82873   0.00000  1       54
siesta:     16.20421   6.69743   0.00000  2       55
siesta:     18.53411   5.35379   0.00000  2       56
siesta:     20.86224   6.69743   0.00000  2       57
siesta:     23.19025   5.35379   0.00000  2       58
siesta:     25.51838   6.69743   0.00000  2       59
siesta:     13.87633  10.73026   0.00000  2       60
siesta:     16.20434   9.38661   0.00000  2       61
siesta:     13.87645  13.41944   0.00000  2       62
siesta:     16.20459  14.76308   0.00000  2       63
siesta:     16.20471  17.45226   0.00000  2       64
siesta:     18.53284  18.79590   0.00000  2       65
siesta:     25.51851   9.38661   0.00000  2       66
siesta:     27.84664  10.73026   0.00000  2       67
siesta:     25.51876  14.76308   0.00000  2       68
siesta:     20.86274  17.45226   0.00000  2       69
siesta:     23.19088  18.79590   0.00000  2       70
siesta:     27.84677  13.41944   0.00000  2       71
siesta:     25.51888  17.45226   0.00000  2       72

siesta: System type = slab      

initatomlists: Number of atoms, orbitals, and projectors:     72   936  1152

siesta: ******************** Simulation parameters ****************************
siesta:
siesta: The following are some of the parameters of the simulation.
siesta: A complete list of the parameters used, including default values,
siesta: can be found in file out.fdf
siesta:
redata: Non-Collinear-spin run           =     F
redata: SpinPolarized (Up/Down) run      =     F
redata: Number of spin components        =     1
redata: Long output                      =     F
redata: Number of Atomic Species         =        2
redata: Charge density info will appear in .RHO file
redata: Write Mulliken Pop.              =     NO
redata: Mesh Cutoff                      =   200.0000  Ry
redata: Net charge of the system         =     0.0000 |e|
redata: Max. number of SCF Iter          =      500
redata: SCF convergence failure will abort job
redata: Performing Pulay mixing using    =    10 iterations
redata: Mix DM in first SCF step ?       =     F
redata: Write Pulay info on disk?        =     F
redata: Discard 1st Pulay DM after  kick =     F
redata: New DM Mixing Weight             =     0.0500
redata: New DM Occupancy tolerance       = 0.000000000001
redata: No kicks to SCF
redata: DM Mixing Weight for Kicks       =     0.5000
redata: DM Tolerance for SCF             =     0.000100
redata: Require Energy convergence for SCF =     F
redata: DM Energy tolerance for SCF      =     0.000100 eV
redata: Require Harris convergence for SCF =     F
redata: DM Harris energy tolerance for SCF =     0.000100 eV
redata: Using Saved Data (generic)   =     F
redata: Use continuation files for DM    =     T
redata: Neglect nonoverlap interactions  =     F
redata: Method of Calculation            =     Diagonalization
redata: Divide and Conquer               =     T
redata: Electronic Temperature           =     0.0019  Ry
redata: Fix the spin of the system       =     F
redata: Dynamics option                  =     Verlet MD run
redata: Initial MD time step             =        1
redata:   Final MD time step             =        1
redata: Length of MD time step           =     1.0000  fs
redata: Initial Temperature of MD run    =     0.0000  K
redata: Perform a MD quench              =     F
redata: ***********************************************************************
Total number of electrons:   306.000000
Total ionic charge:   306.000000

* ProcessorY, Blocksize:    2  24

k-point displ. along   1 input, could be:     0.00    0.50
k-point displ. along   2 input, could be:     0.00    0.50
 Kpoints in:          364 . Kpoints trimmed:          352

siesta: k-grid: Number of k-points =   352
siesta: k-grid: Cutoff (effective) =     5.000 Ang
siesta: k-grid: Supercell and displacements
siesta: k-grid:   26   0   0      0.000
siesta: k-grid:    0  26   0      0.000
siesta: k-grid:    0   0   1      0.000
Naive supercell factors:     2    2    2

superc: Internal auxiliary supercell:     2 x     2 x     2  =       8
superc: Number of atoms, orbitals, and projectors:    576   7488   9216

* Maximum dynamic memory allocated =     6 MB

siesta:                 ==============================
                            Begin MD step =      1
                        ==============================

superc: Internal auxiliary supercell:     2 x     2 x     2  =       8
superc: Number of atoms, orbitals, and projectors:    576   7488   9216

outcell: Unit cell vectors (Ang):
       14.785000    0.000000    0.000000
        7.393000   12.805052    0.000000
        0.000000    0.000000   10.000000

outcell: Cell vector modules (Ang)   :   14.785000   14.786000   10.000000
outcell: Cell angles (23,13,12) (deg):     90.0000     90.0000     60.0000
outcell: Cell volume (Ang**3)        :   1893.2269
New_DM. Step:     1
Initializing Density Matrix...

InitMesh: MESH =   120 x   120 x    90 =     1296000
InitMesh: Mesh cutoff (required, used) =   200.000   223.865 Ry

* Maximum dynamic memory allocated =   181 MB

stepf: Fermi-Dirac step function

siesta: Program's energy decomposition (eV):
siesta: Ebs     =     -4802.612414
siesta: Eions   =     21296.454266
siesta: Ena     =      4153.305010
siesta: Ekin    =      7888.785163
siesta: Enl     =      -279.176837
siesta: DEna    =        -0.000012
siesta: DUscf   =         0.000000
siesta: DUext   =         0.000000
siesta: Exc     =     -4382.823879
siesta: eta*DQ  =         0.000000
siesta: Emadel  =         0.000000
siesta: Emeta   =         0.000000
siesta: Emolmec =         0.000000
siesta: Ekinion =         0.000000
siesta: Eharris =    -13796.069208
siesta: Etot    =    -13916.364821
siesta: FreeEng =    -13916.364821

siesta: iscf   Eharris(eV)      E_KS(eV)   FreeEng(eV)   dDmax  Ef(eV)
siesta:    1   -13796.0692   -13916.3648   -13916.3648  1.8733 -4.3597
timer: Routine,Calls,Time,% = IterSCF        1    6394.727  99.82
elaps: Routine,Calls,Wall,% = IterSCF        1     800.261  99.82
siesta:    2   -14499.6466   -13691.9362   -13691.9743  0.7993 -3.7944
siesta:    3   -13790.4960   -13804.0645   -13804.0656  0.7624 -4.7092
siesta:    4   -13793.5330   -13769.9322   -13769.9750  0.4428 -4.4500
siesta:    5   -13773.8922   -13741.7232   -13741.7615  0.2516 -2.9843
siesta:    6   -13773.8825   -13741.7264   -13741.7626  0.2518 -2.9856
siesta:    7   -13773.8042   -13742.2339   -13742.2700  0.2412 -2.9868
siesta:    8   -13772.3717   -13756.3628   -13756.3985  0.0575 -3.2833
siesta:    9   -13772.1556   -13758.4531   -13758.4807  0.0500 -3.3470
siesta:   10   -13771.9584   -13763.2049   -13763.2295  0.0229 -3.4139
siesta:   11   -13771.9450   -13765.2029   -13765.2295  0.0244 -3.4315
siesta:   12   -13771.9302   -13768.9065   -13768.9337  0.0149 -3.4290
siesta:   13   -13771.9273   -13769.7051   -13769.7297  0.0138 -3.4262
siesta:   14   -13771.9179   -13771.7005   -13771.7249  0.0065 -3.4299
siesta:   15   -13771.9177   -13771.7295   -13771.7539  0.0047 -3.4296
siesta:   16   -13771.9175   -13771.8772   -13771.9015  0.0034 -3.4304
siesta:   17   -13771.9174   -13771.8990   -13771.9232  0.0011 -3.4295
siesta:   18   -13771.9174   -13771.8852   -13771.9092  0.0011 -3.4291
siesta:   19   -13771.9174   -13771.8713   -13771.8954  0.0007 -3.4292
siesta:   20   -13771.9175   -13771.9147   -13771.9388  0.0006 -3.4299
siesta:   21   -13771.9174   -13771.9014   -13771.9254  0.0001 -3.4301
siesta:   22   -13771.9174   -13771.9075   -13771.9315  0.0001 -3.4301

siesta: E_KS(eV) =           -13771.9089

siesta: E_KS - E_eggbox =    -13771.9089

siesta: Atomic forces (eV/Ang):
----------------------------------------
   Tot    0.405895   -0.039675    0.000000
----------------------------------------
   Max    2.135480
   Res    0.640427    sqrt( Sum f_i^2 / 3N )
----------------------------------------
   Max    2.135480    constrained

Stress-tensor-Voigt (kbar):       12.13       12.66        0.21       -0.29        0.00        0.00
(Free)E + p*V (eV/cell)   -13781.7795
Target enthalpy (eV/cell)   -13771.9329

siesta: Stress tensor (static) (eV/Ang**3):
         0.007574   -0.000179    0.000000
        -0.000179    0.007900    0.000000
         0.000000    0.000000    0.000129

siesta: Pressure (static):         -8.33294219  kBar

siesta: Stress tensor (total) (eV/Ang**3):
         0.007574   -0.000179    0.000000
        -0.000179    0.007900    0.000000
         0.000000    0.000000    0.000129

siesta: Pressure (total):         -8.33294219  kBar

siesta: Temp_ion =       0.000 K

* Maximum dynamic memory allocated =   196 MB

siesta: Program's energy decomposition (eV):
siesta: Ebs     =     -4418.308657
siesta: Eions   =     21296.454266
siesta: Ena     =      4153.305010
siesta: Ekin    =      9346.527348
siesta: Enl     =     -1321.487194
siesta: DEna    =      -215.632545
siesta: DUscf   =        26.204295
siesta: DUext   =         0.000000
siesta: Exc     =     -4464.371595
siesta: eta*DQ  =         0.000000
siesta: Emadel  =         0.000000
siesta: Emeta   =         0.000000
siesta: Emolmec =         0.000000
siesta: Ekinion =         0.000000
siesta: Eharris =    -13771.917390
siesta: Etot    =    -13771.908948
siesta: FreeEng =    -13771.932938

siesta: Final energy (eV):
siesta:  Band Struct. =   -4418.308657
siesta:       Kinetic =    9346.527348
siesta:       Hartree =   26658.794386
siesta:    Ext. field =       0.000000
siesta:   Exch.-corr. =   -4464.371595
siesta:  Ion-electron =  -62045.263498
siesta:       Ion-ion =   16732.404411
siesta:       Ekinion =       0.000000
siesta:         Total =  -13771.908948

siesta: Atomic forces (eV/Ang):
siesta:      1   -0.066918   -0.059809    0.000000
siesta:      2    0.288586    0.163554    0.000000
siesta:      3    0.294864   -0.170575    0.000000
siesta:      4    0.035189   -0.377760    0.000000
siesta:      5    0.008821    0.319120    0.000000
siesta:      6   -0.322851    0.200368    0.000000
siesta:      7   -0.613942    0.724575    0.000000
siesta:      8    0.012422   -0.064060    0.000000
siesta:      9    0.028668    0.837806    0.000000
siesta:     10   -0.609478   -0.741333    0.000000
siesta:     11   -0.714405   -0.447050    0.000000
siesta:     12   -1.128257    0.648175    0.000000
siesta:     13    0.332208   -0.908182    0.000000
siesta:     14   -0.058657    0.050489    0.000000
siesta:     15    0.009284    0.366454    0.000000
siesta:     16   -0.286681    0.168423    0.000000
siesta:     17    0.064932   -0.060247    0.000000
siesta:     18   -0.324330    0.901207    0.000000
siesta:     19    0.959434    0.145716    0.000000
siesta:     20   -0.702484    0.394967    0.000000
siesta:     21   -0.026977    1.282521    0.000000
siesta:     22    0.737995    0.397416    0.000000
siesta:     23   -0.931227    0.141570    0.000000
siesta:     24    0.335677    0.893583    0.000000
siesta:     25    0.338316   -0.204103    0.000000
siesta:     26    0.002276   -0.329693    0.000000
siesta:     27   -0.338940   -0.210513    0.000000
siesta:     28    1.136442    0.655747    0.000000
siesta:     29    0.733185   -0.450785    0.000000
siesta:     30   -0.007575    0.055938    0.000000
siesta:     31    0.619301   -0.732839    0.000000
siesta:     32   -0.012577    0.837058    0.000000
siesta:     33   -1.023376   -0.610405    0.000000
siesta:     34   -0.024296   -1.231760    0.000000
siesta:     35    1.064803   -0.597221    0.000000
siesta:     36    0.616972    0.730879    0.000000
siesta:     37   -0.023430   -0.841883    0.000000
siesta:     38   -1.088672    0.595506    0.000000
siesta:     39   -0.005363    1.233522    0.000000
siesta:     40    1.129821   -0.656750    0.000000
siesta:     41    0.720261    0.442761    0.000000
siesta:     42   -0.296588   -0.908871    0.000000
siesta:     43    0.978172   -0.150112    0.000000
siesta:     44   -0.771668   -0.404394    0.000000
siesta:     45   -0.009325   -1.288336    0.000000
siesta:     46    1.068483    0.592743    0.000000
siesta:     47    0.025295   -0.845943    0.000000
siesta:     48   -0.718880    0.440514    0.000000
siesta:     49    0.749629   -0.412346    0.000000
siesta:     50   -0.948668   -0.146369    0.000000
siesta:     51   -1.129646   -0.662500    0.000000
siesta:     52    0.345368    0.200515    0.000000
siesta:     53   -0.318234   -0.167525    0.000000
siesta:     54    0.029637    0.055866    0.000000
siesta:     55   -1.290349    0.195827    0.000000
siesta:     56    0.796689   -1.080057    0.000000
siesta:     57    0.019863    2.135480    0.000000
siesta:     58   -0.817283   -1.081393    0.000000
siesta:     59    1.345126    0.199715    0.000000
siesta:     60   -0.498133   -1.208891    0.000000
siesta:     61    1.836048    1.034464    0.000000
siesta:     62   -0.499290    1.233637    0.000000
siesta:     63    1.858275   -1.015084    0.000000
siesta:     64   -1.318466   -0.179527    0.000000
siesta:     65    0.865623    1.090999    0.000000
siesta:     66   -1.812606    1.036491    0.000000
siesta:     67    0.524198   -1.214374    0.000000
siesta:     68   -1.800239   -1.014807    0.000000
siesta:     69   -0.007363   -2.124527    0.000000
siesta:     70   -0.810306    1.101203    0.000000
siesta:     71    0.513364    1.235745    0.000000
siesta:     72    1.338149   -0.180207    0.000000
siesta: ----------------------------------------
siesta:    Tot    0.405895   -0.039675    0.000000

siesta: Stress tensor (static) (eV/Ang**3):
siesta:     0.007574   -0.000179    0.000000
siesta:    -0.000179    0.007900    0.000000
siesta:     0.000000    0.000000    0.000129

siesta: Cell volume =       1893.226895 Ang**3

siesta: Pressure (static):
siesta:                Solid            Molecule  Units
siesta:          -0.00005665          0.00012123  Ry/Bohr**3
siesta:          -0.00520096          0.01113091  eV/Ang**3
siesta:          -8.33294219         17.83387823  kBar
(Free)E+ p_basis*V_orbitals  =      -13743.768665
(Free)Eharris+ p_basis*V_orbitals  =      -13743.778536

siesta: Electric dipole (a.u.)  =    0.000000    0.000000    0.000000
siesta: Electric dipole (Debye) =    0.000000    0.000000    0.000000

* Maximum dynamic memory allocated : Node    0 =   196 MB
* Maximum dynamic memory allocated : Node    1 =    73 MB
* Maximum dynamic memory allocated : Node    2 =    75 MB
* Maximum dynamic memory allocated : Node    3 =   186 MB
* Maximum dynamic memory allocated : Node    4 =   196 MB
* Maximum dynamic memory allocated : Node    5 =    72 MB
* Maximum dynamic memory allocated : Node    6 =    73 MB
* Maximum dynamic memory allocated : Node    7 =   181 MB

* Maximum memory occured during matrixMtoO                    

timer: CPU execution times:
timer:  Routine       Calls   Time/call    Tot.time        %
timer:  siesta            1  138719.820  138719.820   100.00
timer:  Setup             1       3.055       3.055     0.00
timer:  bands             1       0.010       0.010     0.00
timer:  writewave         1       0.017       0.017     0.00
timer:  KSV_init          1       0.002       0.002     0.00
timer:  IterMD            1  138708.628  138708.628    99.99
timer:  hsparse           1       0.255       0.255     0.00
timer:  overlap           1       7.661       7.661     0.01
timer:  IterSCF          22    6297.730  138550.053    99.88
timer:  kinefsm           2       3.923       7.846     0.01
timer:  nlefsm            2      18.309      36.618     0.03
timer:  DHSCF            23      82.480    1897.035     1.37
timer:  DHSCF1            1       0.769       0.769     0.00
timer:  DHSCF2            1      32.073      32.073     0.02
timer:  REORD           186       0.010       1.830     0.00
timer:  POISON           24       2.254      54.093     0.04
timer:  DHSCF3           23      79.721    1833.592     1.32
timer:  rhoofd           23      15.180     349.149     0.25
timer:  cellXC           23       3.476      79.951     0.06
timer:  vmat             23      40.274     926.292     0.67
timer:  MolMec            2       0.000       0.000     0.00
timer:  diagon           22    6213.994  136707.864    98.55
timer:  c-eigval       7744       6.678   51717.993    37.28
timer:  c-buildHS      7744       0.114     886.414     0.64
timer:  cdiag         15488       6.859  106233.336    76.58
timer:  cdiag1        15488       0.427    6617.711     4.77
timer:  cdiag2        15488       1.904   29491.671    21.26
timer:  cdiag3        15488       3.957   61282.804    44.18
timer:  cdiag4        15488       0.204    3157.755     2.28
timer:  c-eigvec       7744       7.224   55945.241    40.33
timer:  c-buildD       7744       3.742   28979.924    20.89
timer:  DHSCF4            1      29.369      29.369     0.02
timer:  dfscf             1      27.568      27.568     0.02
timer:  overfsm           1       0.371       0.371     0.00
timer:  optical           1       7.117       7.117     0.01
  

elaps: ELAPSED times:
elaps:  Routine       Calls   Time/call    Tot.time        %
elaps:  siesta            1   17358.910   17358.910   100.00
elaps:  Setup             1       0.380       0.380     0.00
elaps:  bands             1       0.001       0.001     0.00
elaps:  writewave         1       0.002       0.002     0.00
elaps:  KSV_init          1       0.000       0.000     0.00
elaps:  IterMD            1   17357.511   17357.511    99.99
elaps:  hsparse           1       0.032       0.032     0.00
elaps:  overlap           1       0.972       0.972     0.01
elaps:  IterSCF          22     788.076   17337.673    99.88
elaps:  kinefsm           2       0.498       0.996     0.01
elaps:  nlefsm            2       2.263       4.527     0.03
elaps:  DHSCF            23      10.453     240.413     1.38
elaps:  DHSCF1            1       0.101       0.101     0.00
elaps:  DHSCF2            1       4.008       4.008     0.02
elaps:  REORD           186       0.001       0.248     0.00
elaps:  POISON           24       0.282       6.772     0.04
elaps:  DHSCF3           23       9.972     229.353     1.32
elaps:  rhoofd           23       3.314      76.231     0.44
elaps:  cellXC           23       0.434       9.982     0.06
elaps:  vmat             23       5.036     115.832     0.67
elaps:  MolMec            2       0.000       0.000     0.00
elaps:  diagon           22     777.623   17107.709    98.55
elaps:  c-eigval       7744       0.836    6470.776    37.28
elaps:  c-buildHS      7744       0.016     121.925     0.70
elaps:  cdiag         15488       0.846   13103.932    75.49
elaps:  cdiag1        15488       0.053     824.703     4.75
elaps:  cdiag2        15488       0.238    3690.189    21.26
elaps:  cdiag3        15488       0.496    7677.955    44.23
elaps:  cdiag4        15488       0.026     403.897     2.33
elaps:  c-eigvec       7744       0.884    6843.710    39.42
elaps:  c-buildD       7744       0.489    3783.899    21.80
elaps:  DHSCF4            1       6.785       6.785     0.04
elaps:  dfscf             1       6.417       6.417     0.04
elaps:  overfsm           1       0.047       0.047     0.00
elaps:  optical           1       0.000       0.000     0.00
  
>> End of run:   6-DEC-2015  20:51:44
