Siesta Version:                                        siesta-3.2-pl-3
Architecture  : x86_64-unknown-linux-gnu--unknown
Compiler flags: mpiifort -g -O2 -fPIC -xSSE4.1 -fp-model source -shared-intel 
PARALLEL version

* Running on    8 nodes in parallel
>> Start of run:  25-NOV-2015  22:40:38

                           ***********************       
                           *  WELCOME TO SIESTA  *       
                           ***********************       

reinit: Reading from standard input
************************** Dump of input data file ****************************
#(1) General system descriptors
SystemName            GRP_doping    # Descriptive name of the system
SystemLabel           GRP_doping    # Short name for naming files
%include STRUCT.fdf
%include KPT.fdf
%include BASIS.fdf
#%include TS.fdf # for transiesta calculation
#(4) DFT, Grid, SCF
XC.functional         GGA           # LDA or GGA (default = LDA)
XC.authors            PBE           # CA (Ceperley-Aldr) = PZ
                                    #    (Perdew-Zunger) - LDA - Default
                                    # PW92 (Perdew-Wang-92) - LDA
                                    # PBE (Perdew-Burke-Ernzerhof) - GGA
MeshCutoff            200.000000    Ry      # Default: 50.0 Ry ~ 0.444 Bohr
                                    #         100.0 Ry ~ 0.314 Bohr
MaxSCFIterations      500           # Default: 50
DM.MixingWeight       0.05          # Default: 0.25
DM.NumberPulay        10            # Default: 0
DM.PulayOnFile        F             # SystemLabel.P1, SystemLabel.P2
DM.Tolerance          1.d-4         # Default: 1.d-4
DM.UseSaveDM          .true.        # because of the bug
SCFMustConverge       .true.
NeglNonOverlapInt     F             # Default: F
#(5) Eigenvalue problem: order-N or diagonalization
SolutionMethod        Diagon        # or Transiesta
ElectronicTemperature 300.0 K       # Default: 300.0 K
#(6) Molecular dynamics and relaxations
#MD.TypeOfRun          CG            # Type of dynamics:
#MD.VariableCell       F
#MD.NumCGsteps         0           # 0 for single-point / 100 for gopt
#MD.MaxCGDispl         0.2 Bohr      # Default: 0.2 Bohr
#MD.MaxForceTol        0.02 eV/Ang   # Default: 0.04 eV/Ang
#MD.MaxStressTol       1.0 GPa       # Default: 1.0 GPa
# Geometry Constraints
#%block GeometryConstraints
#	position from 1 to 44
#%endblock GeometryConstraints
************************** End of input data file *****************************

reinit: -----------------------------------------------------------------------
reinit: System Name: GRP_doping
reinit: -----------------------------------------------------------------------
reinit: System Label: GRP_doping                                                  
reinit: -----------------------------------------------------------------------

initatom: Reading input for the pseudopotentials and atomic orbitals ----------
 Species number:            1  Label: B Atomic number:           5
 Species number:            2  Label: C Atomic number:           6
Ground state valence configuration:   2s02  2p01
Reading pseudopotential information in formatted form from B.psf

Valence configuration for pseudopotential generation:
2s( 2.00) rc: 1.74
2p( 1.00) rc: 1.74
3d( 0.00) rc: 1.74
4f( 0.00) rc: 1.74
Ground state valence configuration:   2s02  2p02
Reading pseudopotential information in formatted form from C.psf

Valence configuration for pseudopotential generation:
2s( 2.00) rc: 1.54
2p( 2.00) rc: 1.54
3d( 0.00) rc: 1.54
4f( 0.00) rc: 1.54
For B, standard SIESTA heuristics set lmxkb to 3
 (one more than the basis l, including polarization orbitals).
Use PS.lmax or PS.KBprojectors blocks to override.
For C, standard SIESTA heuristics set lmxkb to 3
 (one more than the basis l, including polarization orbitals).
Use PS.lmax or PS.KBprojectors blocks to override.

<basis_specs>
===============================================================================
B                    Z=   5    Mass=  10.810        Charge= 0.17977+309
Lmxo=1 Lmxkb= 3    BasisType=split      Semic=F
L=0  Nsemic=0  Cnfigmx=2
          n=1  nzeta=2  polorb=0
            splnorm:   0.15000    
               vcte:    0.0000    
               rinn:    0.0000    
                rcs:    0.0000      0.0000    
            lambdas:    1.0000      1.0000    
L=1  Nsemic=0  Cnfigmx=2
          n=1  nzeta=2  polorb=1
            splnorm:   0.15000    
               vcte:    0.0000    
               rinn:    0.0000    
                rcs:    0.0000      0.0000    
            lambdas:    1.0000      1.0000    
-------------------------------------------------------------------------------
L=0  Nkbl=1  erefs: 0.17977+309
L=1  Nkbl=1  erefs: 0.17977+309
L=2  Nkbl=1  erefs: 0.17977+309
L=3  Nkbl=1  erefs: 0.17977+309
===============================================================================
</basis_specs>

atom: Called for B                     (Z =   5)

read_vps: Pseudopotential generation method:
read_vps: ATM3      Troullier-Martins                       
Total valence charge:    3.00000

read_vps: Pseudopotential includes a core correction:
read_vps: Pseudo-core for xc-correction

xc_check: Exchange-correlation functional:
xc_check: GGA Perdew, Burke & Ernzerhof 1996
V l=0 = -2*Zval/r beyond r=  1.7165
V l=1 = -2*Zval/r beyond r=  1.7165
V l=2 = -2*Zval/r beyond r=  1.7165
V l=3 = -2*Zval/r beyond r=  1.6951
All V_l potentials equal beyond r=  1.7165
This should be close to max(r_c) in ps generation
All pots = -2*Zval/r beyond r=  1.7165

VLOCAL1: 99.0% of the norm of Vloc inside     14.733 Ry
VLOCAL1: 99.9% of the norm of Vloc inside     33.577 Ry
atom: Maximum radius for 4*pi*r*r*local-pseudopot. charge    2.04484
atom: Maximum radius for r*vlocal+2*Zval:    1.75994
GHOST: No ghost state for L =  0
GHOST: No ghost state for L =  1
GHOST: No ghost state for L =  2
GHOST: No ghost state for L =  3

KBgen: Kleinman-Bylander projectors: 
   l= 0   rc=  1.897051   el= -0.693730   Ekb=  4.595746   kbcos=  0.286105
   l= 1   rc=  1.920920   el= -0.265236   Ekb= -2.350715   kbcos= -0.315747
   l= 2   rc=  2.044840   el=  0.002055   Ekb= -0.690767   kbcos= -0.013822
   l= 3   rc=  2.149707   el=  0.003188   Ekb= -0.315358   kbcos= -0.002055

KBgen: Total number of  Kleinman-Bylander projectors:   16
atom: -------------------------------------------------------------------------

atom: SANKEY-TYPE ORBITALS:
atom: Selected multiple-zeta basis: split     

SPLIT: Orbitals with angular momentum L= 0

SPLIT: Basis orbitals for state 2s

SPLIT: PAO cut-off radius determined from an
SPLIT: energy shift=  0.007350 Ry

   izeta = 1
                 lambda =    1.000000
                     rc =    5.422032
                 energy =   -0.686029
                kinetic =    0.576707
    potential(screened) =   -1.262736
       potential(ionic) =   -3.271094

   izeta = 2
                 rmatch =    4.222573
              splitnorm =    0.150000
                 energy =   -0.602132
                kinetic =    0.858975
    potential(screened) =   -1.461107
       potential(ionic) =   -3.582536

SPLIT: Orbitals with angular momentum L= 1

SPLIT: Basis orbitals for state 2p

SPLIT: PAO cut-off radius determined from an
SPLIT: energy shift=  0.007350 Ry

   izeta = 1
                 lambda =    1.000000
                     rc =    6.790259
                 energy =   -0.258578
                kinetic =    1.481412
    potential(screened) =   -1.739989
       potential(ionic) =   -3.657461

   izeta = 2
                 rmatch =    4.608740
              splitnorm =    0.150000
                 energy =   -0.173757
                kinetic =    2.186690
    potential(screened) =   -2.360447
       potential(ionic) =   -4.464260

POLgen: Perturbative polarization orbital with L=  2

POLgen: Polarization orbital for state 2p

   izeta = 1
                     rc =    6.790259
                 energy =    0.684082
                kinetic =    1.471481
    potential(screened) =   -0.787399
       potential(ionic) =   -2.406985
atom: Total number of Sankey-type orbitals: 13

atm_pop: Valence configuration (for local Pseudopot. screening):
 2s( 2.00)                                                            
 2p( 1.00)                                                            
Vna: chval, zval:    3.00000   3.00000

Vna:  Cut-off radius for the neutral-atom potential:   6.790259
comcore: Pseudo-core radius Rcore=  2.122997

atom: _________________________________________________________________________

<basis_specs>
===============================================================================
C                    Z=   6    Mass=  12.010        Charge= 0.17977+309
Lmxo=1 Lmxkb= 3    BasisType=split      Semic=F
L=0  Nsemic=0  Cnfigmx=2
          n=1  nzeta=2  polorb=0
            splnorm:   0.15000    
               vcte:    0.0000    
               rinn:    0.0000    
                rcs:    0.0000      0.0000    
            lambdas:    1.0000      1.0000    
L=1  Nsemic=0  Cnfigmx=2
          n=1  nzeta=2  polorb=1
            splnorm:   0.15000    
               vcte:    0.0000    
               rinn:    0.0000    
                rcs:    0.0000      0.0000    
            lambdas:    1.0000      1.0000    
-------------------------------------------------------------------------------
L=0  Nkbl=1  erefs: 0.17977+309
L=1  Nkbl=1  erefs: 0.17977+309
L=2  Nkbl=1  erefs: 0.17977+309
L=3  Nkbl=1  erefs: 0.17977+309
===============================================================================
</basis_specs>

atom: Called for C                     (Z =   6)

read_vps: Pseudopotential generation method:
read_vps: ATM3      Troullier-Martins                       
Total valence charge:    4.00000

read_vps: Pseudopotential includes a core correction:
read_vps: Pseudo-core for xc-correction

xc_check: Exchange-correlation functional:
xc_check: GGA Perdew, Burke & Ernzerhof 1996
V l=0 = -2*Zval/r beyond r=  1.5227
V l=1 = -2*Zval/r beyond r=  1.5227
V l=2 = -2*Zval/r beyond r=  1.5227
V l=3 = -2*Zval/r beyond r=  1.5038
All V_l potentials equal beyond r=  1.5227
This should be close to max(r_c) in ps generation
All pots = -2*Zval/r beyond r=  1.5227

VLOCAL1: 99.0% of the norm of Vloc inside     18.722 Ry
VLOCAL1: 99.9% of the norm of Vloc inside     42.668 Ry
atom: Maximum radius for 4*pi*r*r*local-pseudopot. charge    1.83678
atom: Maximum radius for r*vlocal+2*Zval:    1.58088
GHOST: No ghost state for L =  0
GHOST: No ghost state for L =  1
GHOST: No ghost state for L =  2
GHOST: No ghost state for L =  3

KBgen: Kleinman-Bylander projectors: 
   l= 0   rc=  1.704034   el= -1.009801   Ekb=  5.335044   kbcos=  0.316824
   l= 1   rc=  1.704034   el= -0.388707   Ekb= -3.785862   kbcos= -0.366464
   l= 2   rc=  1.791422   el=  0.001971   Ekb= -0.970471   kbcos= -0.009212
   l= 3   rc=  1.859892   el=  0.003065   Ekb= -0.399525   kbcos= -0.001223

KBgen: Total number of  Kleinman-Bylander projectors:   16
atom: -------------------------------------------------------------------------

atom: SANKEY-TYPE ORBITALS:
atom: Selected multiple-zeta basis: split     

SPLIT: Orbitals with angular momentum L= 0

SPLIT: Basis orbitals for state 2s

SPLIT: PAO cut-off radius determined from an
SPLIT: energy shift=  0.007350 Ry

   izeta = 1
                 lambda =    1.000000
                     rc =    4.632753
                 energy =   -1.002270
                kinetic =    0.855760
    potential(screened) =   -1.858031
       potential(ionic) =   -5.417575

   izeta = 2
                 rmatch =    3.431921
              splitnorm =    0.150000
                 energy =   -0.867111
                kinetic =    1.300804
    potential(screened) =   -2.167915
       potential(ionic) =   -5.962684

SPLIT: Orbitals with angular momentum L= 1

SPLIT: Basis orbitals for state 2p

SPLIT: PAO cut-off radius determined from an
SPLIT: energy shift=  0.007350 Ry

   izeta = 1
                 lambda =    1.000000
                     rc =    5.658549
                 energy =   -0.381140
                kinetic =    2.399701
    potential(screened) =   -2.780841
       potential(ionic) =   -6.206085

   izeta = 2
                 rmatch =    3.653288
              splitnorm =    0.150000
                 energy =   -0.249149
                kinetic =    3.542762
    potential(screened) =   -3.791911
       potential(ionic) =   -7.581078

POLgen: Perturbative polarization orbital with L=  2

POLgen: Polarization orbital for state 2p

   izeta = 1
                     rc =    5.658549
                 energy =    1.109913
                kinetic =    2.304789
    potential(screened) =   -1.194876
       potential(ionic) =   -4.013592
atom: Total number of Sankey-type orbitals: 13

atm_pop: Valence configuration (for local Pseudopot. screening):
 2s( 2.00)                                                            
 2p( 2.00)                                                            
Vna: chval, zval:    4.00000   4.00000

Vna:  Cut-off radius for the neutral-atom potential:   5.658549
comcore: Pseudo-core radius Rcore=  1.791422

atom: _________________________________________________________________________

prinput: Basis input ----------------------------------------------------------

PAO.BasisType split     

%block ChemicalSpeciesLabel
    1    5 B                       # Species index, atomic number, species label
    2    6 C                       # Species index, atomic number, species label
%endblock ChemicalSpeciesLabel

%block PAO.Basis                 # Define Basis set
B                     2                    # Species label, number of l-shells
 n=2   0   2                         # n, l, Nzeta 
   5.422      4.223   
   1.000      1.000   
 n=2   1   2 P   1                   # n, l, Nzeta, Polarization, NzetaPol
   6.790      4.609   
   1.000      1.000   
C                     2                    # Species label, number of l-shells
 n=2   0   2                         # n, l, Nzeta 
   4.633      3.432   
   1.000      1.000   
 n=2   1   2 P   1                   # n, l, Nzeta, Polarization, NzetaPol
   5.659      3.653   
   1.000      1.000   
%endblock PAO.Basis

prinput: ----------------------------------------------------------------------

coor:   Atomic-coordinates input format  =     Cartesian coordinates
coor:                                          (in Angstroms)

siesta: Atomic coordinates (Bohr) and species
siesta:      2.23554   1.32097   0.00000  1        1
siesta:     13.87595   2.66461   0.00000  1        2
siesta:      4.56367   2.66461   0.00000  2        3
siesta:     32.50328  21.48508   0.00000  2        4
siesta:     34.83141  22.82873   0.00000  2        5
siesta:     34.83116  17.45226   0.00000  2        6
siesta:     37.15930  18.79590   0.00000  2        7
siesta:     32.50291  13.41944   0.00000  2        8
siesta:     34.83104  14.76308   0.00000  2        9
siesta:     30.17465   9.38661   0.00000  2       10
siesta:     32.50278  10.73026   0.00000  2       11
siesta:     27.84639   5.35379   0.00000  2       12
siesta:     30.17453   6.69743   0.00000  2       13
siesta:     27.84714  21.48508   0.00000  2       14
siesta:     30.17527  22.82873   0.00000  2       15
siesta:      6.89168   1.32097   0.00000  2       16
siesta:      9.21981   2.66461   0.00000  2       17
siesta:     11.54782   1.32097   0.00000  2       18
siesta:     16.20396   1.32097   0.00000  2       19
siesta:     18.53210   2.66461   0.00000  2       20
siesta:     20.86199   1.32097   0.00000  2       21
siesta:     23.19013   2.66461   0.00000  2       22
siesta:     25.51813   1.32097   0.00000  2       23
siesta:     27.84627   2.66461   0.00000  2       24
siesta:      4.56380   5.35379   0.00000  2       25
siesta:      6.89193   6.69743   0.00000  2       26
siesta:      9.21994   5.35379   0.00000  2       27
siesta:     11.54807   6.69743   0.00000  2       28
siesta:     13.87608   5.35379   0.00000  2       29
siesta:     16.20421   6.69743   0.00000  2       30
siesta:     18.53411   5.35379   0.00000  2       31
siesta:     20.86224   6.69743   0.00000  2       32
siesta:     23.19025   5.35379   0.00000  2       33
siesta:     25.51838   6.69743   0.00000  2       34
siesta:      6.89205   9.38661   0.00000  2       35
siesta:      9.22019  10.73026   0.00000  2       36
siesta:     11.54820   9.38661   0.00000  2       37
siesta:     13.87633  10.73026   0.00000  2       38
siesta:     16.20434   9.38661   0.00000  2       39
siesta:     18.53247  10.73026   0.00000  2       40
siesta:     20.86237   9.38661   0.00000  2       41
siesta:     23.19050  10.73026   0.00000  2       42
siesta:      9.22031  13.41944   0.00000  2       43
siesta:     11.54845  14.76308   0.00000  2       44
siesta:     13.87645  13.41944   0.00000  2       45
siesta:     16.20459  14.76308   0.00000  2       46
siesta:     18.53448  13.41944   0.00000  2       47
siesta:     20.86262  14.76308   0.00000  2       48
siesta:     11.54857  17.45226   0.00000  2       49
siesta:     13.87670  18.79590   0.00000  2       50
siesta:     16.20471  17.45226   0.00000  2       51
siesta:     18.53284  18.79590   0.00000  2       52
siesta:     13.87683  21.48508   0.00000  2       53
siesta:     16.20496  22.82873   0.00000  2       54
siesta:     18.53486  21.48508   0.00000  2       55
siesta:     20.86299  22.82873   0.00000  2       56
siesta:     25.51851   9.38661   0.00000  2       57
siesta:     27.84664  10.73026   0.00000  2       58
siesta:     23.19063  13.41944   0.00000  2       59
siesta:     25.51876  14.76308   0.00000  2       60
siesta:     20.86274  17.45226   0.00000  2       61
siesta:     23.19088  18.79590   0.00000  2       62
siesta:     27.84677  13.41944   0.00000  2       63
siesta:     30.17490  14.76308   0.00000  2       64
siesta:     25.51888  17.45226   0.00000  2       65
siesta:     27.84702  18.79590   0.00000  2       66
siesta:     23.19100  21.48508   0.00000  2       67
siesta:     25.51913  22.82873   0.00000  2       68
siesta:     30.17503  17.45226   0.00000  2       69
siesta:     32.50316  18.79590   0.00000  2       70
siesta:     37.16131  21.48508   0.00000  2       71
siesta:     39.48945  22.82873   0.00000  2       72

siesta: System type = slab      

initatomlists: Number of atoms, orbitals, and projectors:     72   936  1152

siesta: ******************** Simulation parameters ****************************
siesta:
siesta: The following are some of the parameters of the simulation.
siesta: A complete list of the parameters used, including default values,
siesta: can be found in file out.fdf
siesta:
redata: Non-Collinear-spin run           =     F
redata: SpinPolarized (Up/Down) run      =     F
redata: Number of spin components        =     1
redata: Long output                      =     F
redata: Number of Atomic Species         =        2
redata: Charge density info will appear in .RHO file
redata: Write Mulliken Pop.              =     NO
redata: Mesh Cutoff                      =   200.0000  Ry
redata: Net charge of the system         =     0.0000 |e|
redata: Max. number of SCF Iter          =      500
redata: SCF convergence failure will abort job
redata: Performing Pulay mixing using    =    10 iterations
redata: Mix DM in first SCF step ?       =     F
redata: Write Pulay info on disk?        =     F
redata: Discard 1st Pulay DM after  kick =     F
redata: New DM Mixing Weight             =     0.0500
redata: New DM Occupancy tolerance       = 0.000000000001
redata: No kicks to SCF
redata: DM Mixing Weight for Kicks       =     0.5000
redata: DM Tolerance for SCF             =     0.000100
redata: Require Energy convergence for SCF =     F
redata: DM Energy tolerance for SCF      =     0.000100 eV
redata: Require Harris convergence for SCF =     F
redata: DM Harris energy tolerance for SCF =     0.000100 eV
redata: Using Saved Data (generic)   =     F
redata: Use continuation files for DM    =     T
redata: Neglect nonoverlap interactions  =     F
redata: Method of Calculation            =     Diagonalization
redata: Divide and Conquer               =     T
redata: Electronic Temperature           =     0.0019  Ry
redata: Fix the spin of the system       =     F
redata: Dynamics option                  =     Verlet MD run
redata: Initial MD time step             =        1
redata:   Final MD time step             =        1
redata: Length of MD time step           =     1.0000  fs
redata: Initial Temperature of MD run    =     0.0000  K
redata: Perform a MD quench              =     F
redata: ***********************************************************************
Total number of electrons:   286.000000
Total ionic charge:   286.000000

* ProcessorY, Blocksize:    2  24

k-point displ. along   1 input, could be:     0.00    0.50
k-point displ. along   2 input, could be:     0.00    0.50
 Kpoints in:          364 . Kpoints trimmed:          352

siesta: k-grid: Number of k-points =   352
siesta: k-grid: Cutoff (effective) =     5.000 Ang
siesta: k-grid: Supercell and displacements
siesta: k-grid:   26   0   0      0.000
siesta: k-grid:    0  26   0      0.000
siesta: k-grid:    0   0   1      0.000
Naive supercell factors:     2    2    2

superc: Internal auxiliary supercell:     2 x     2 x     2  =       8
superc: Number of atoms, orbitals, and projectors:    576   7488   9216

* Maximum dynamic memory allocated =     6 MB

siesta:                 ==============================
                            Begin MD step =      1
                        ==============================

superc: Internal auxiliary supercell:     2 x     2 x     2  =       8
superc: Number of atoms, orbitals, and projectors:    576   7488   9216

outcell: Unit cell vectors (Ang):
       14.785000    0.000000    0.000000
        7.393000   12.805052    0.000000
        0.000000    0.000000   10.000000

outcell: Cell vector modules (Ang)   :   14.785000   14.786000   10.000000
outcell: Cell angles (23,13,12) (deg):     90.0000     90.0000     60.0000
outcell: Cell volume (Ang**3)        :   1893.2269
New_DM. Step:     1
Initializing Density Matrix...

iodm: Reading Density Matrix from files

InitMesh: MESH =   120 x   120 x    90 =     1296000
InitMesh: Mesh cutoff (required, used) =   200.000   223.865 Ry

* Maximum dynamic memory allocated =   200 MB

stepf: Fermi-Dirac step function

siesta: Program's energy decomposition (eV):
siesta: Ebs     =     -3883.197463
siesta: Eions   =     18146.897649
siesta: Ena     =      3930.206717
siesta: Ekin    =      7736.054540
siesta: Enl     =      -770.144508
siesta: DEna    =      -297.972761
siesta: DUscf   =        27.535406
siesta: DUext   =         0.000000
siesta: Exc     =     -4046.437130
siesta: eta*DQ  =         0.000000
siesta: Emadel  =         0.000000
siesta: Emeta   =         0.000000
siesta: Emolmec =         0.000000
siesta: Ekinion =         0.000000
siesta: Eharris =    -11567.651661
siesta: Etot    =    -11567.655384
siesta: FreeEng =    -11567.655384

siesta: iscf   Eharris(eV)      E_KS(eV)   FreeEng(eV)   dDmax  Ef(eV)
siesta:    1   -11567.6517   -11567.6554   -11567.6554  0.0002 -5.3004
timer: Routine,Calls,Time,% = IterSCF        1    6685.856  99.81
elaps: Routine,Calls,Wall,% = IterSCF        1     836.786  99.80
siesta:    2   -11567.6517   -11567.6517   -11567.6647  0.0002 -5.3011
siesta:    3   -11567.6517   -11567.6527   -11567.6657  0.0001 -5.3008

siesta: E_KS(eV) =           -11567.6518

siesta: E_KS - E_eggbox =    -11567.6518

siesta: Atomic forces (eV/Ang):
----------------------------------------
   Tot    0.194223   -0.282653    0.000000
----------------------------------------
   Max    3.498560
   Res    0.602403    sqrt( Sum f_i^2 / 3N )
----------------------------------------
   Max    3.498560    constrained

Stress-tensor-Voigt (kbar):      -54.17      -53.02       -0.05       -0.44        0.00        0.00
(Free)E + p*V (eV/cell)   -11525.4245
Target enthalpy (eV/cell)   -11567.6648

siesta: Stress tensor (static) (eV/Ang**3):
        -0.033811   -0.000277    0.000000
        -0.000277   -0.033092    0.000000
         0.000000    0.000000   -0.000030

siesta: Pressure (static):         35.74695810  kBar

siesta: Stress tensor (total) (eV/Ang**3):
        -0.033811   -0.000277    0.000000
        -0.000277   -0.033092    0.000000
         0.000000    0.000000   -0.000030

siesta: Pressure (total):         35.74695810  kBar

siesta: Temp_ion =       0.000 K

* Maximum dynamic memory allocated =   214 MB

siesta: Program's energy decomposition (eV):
siesta: Ebs     =     -3883.176997
siesta: Eions   =     18146.897649
siesta: Ena     =      3930.206717
siesta: Ekin    =      7736.073545
siesta: Enl     =      -770.150714
siesta: DEna    =      -297.979327
siesta: DUscf   =        27.535222
siesta: DUext   =         0.000000
siesta: Exc     =     -4046.439615
siesta: eta*DQ  =         0.000000
siesta: Emadel  =         0.000000
siesta: Emeta   =         0.000000
siesta: Emolmec =         0.000000
siesta: Ekinion =         0.000000
siesta: Eharris =    -11567.651675
siesta: Etot    =    -11567.651821
siesta: FreeEng =    -11567.664811

siesta: Final energy (eV):
siesta:  Band Struct. =   -3883.176997
siesta:       Kinetic =    7736.073545
siesta:       Hartree =   22791.638884
siesta:    Ext. field =       0.000000
siesta:   Exch.-corr. =   -4046.439615
siesta:  Ion-electron =  -52700.491218
siesta:       Ion-ion =   14651.566584
siesta:       Ekinion =       0.000000
siesta:         Total =  -11567.651821

siesta: Atomic forces (eV/Ang):
siesta:      1   -0.000301    0.021325    0.000000
siesta:      2   -0.004105   -0.033582    0.000000
siesta:      3    2.927900    1.722518    0.000000
siesta:      4   -0.009654   -0.117131    0.000000
siesta:      5   -0.122850    0.075717    0.000000
siesta:      6    0.042731   -0.005533    0.000000
siesta:      7    0.000308   -0.100276    0.000000
siesta:      8    0.032936   -0.073359    0.000000
siesta:      9    0.023684   -0.005183    0.000000
siesta:     10   -0.004404   -0.336143    0.000000
siesta:     11    0.162794    0.070094    0.000000
siesta:     12   -0.514392   -0.337103    0.000000
siesta:     13    0.045890    0.326255    0.000000
siesta:     14   -0.027162   -0.334677    0.000000
siesta:     15    0.522627    0.349544    0.000000
siesta:     16   -0.082789    0.707172    0.000000
siesta:     17    0.089837   -0.739733    0.000000
siesta:     18   -2.920868   -1.760661    0.000000
siesta:     19    3.027190   -1.773696    0.000000
siesta:     20    0.021437   -0.653134    0.000000
siesta:     21    0.028549    0.135649    0.000000
siesta:     22   -0.061587   -0.166377    0.000000
siesta:     23    0.032033    0.611309    0.000000
siesta:     24   -2.998315    1.732225    0.000000
siesta:     25    0.405681   -0.376568    0.000000
siesta:     26    0.197523    0.022199    0.000000
siesta:     27   -0.333861    0.120195    0.000000
siesta:     28    0.566520    0.323792    0.000000
siesta:     29    0.008881    3.498560    0.000000
siesta:     30   -0.501078    0.288390    0.000000
siesta:     31    0.266239    0.194291    0.000000
siesta:     32   -0.290978   -0.131947    0.000000
siesta:     33    0.159379   -0.063885    0.000000
siesta:     34    0.017369    0.114294    0.000000
siesta:     35    0.007951    0.123050    0.000000
siesta:     36   -0.009781    0.093351    0.000000
siesta:     37   -0.154077   -0.000205    0.000000
siesta:     38    0.004479   -0.035796    0.000000
siesta:     39    0.171853    0.018090    0.000000
siesta:     40    0.035610    0.059044    0.000000
siesta:     41   -0.000303    0.097231    0.000000
siesta:     42   -0.041237   -0.001170    0.000000
siesta:     43   -0.033770   -0.031349    0.000000
siesta:     44   -0.005677    0.022211    0.000000
siesta:     45    0.020340   -0.001226    0.000000
siesta:     46    0.019810   -0.016903    0.000000
siesta:     47   -0.030840   -0.022243    0.000000
siesta:     48    0.023622    0.027725    0.000000
siesta:     49   -0.001884   -0.072077    0.000000
siesta:     50   -0.166731   -0.027127    0.000000
siesta:     51    0.002378    0.022391    0.000000
siesta:     52    0.199735   -0.015625    0.000000
siesta:     53    0.554733   -0.305657    0.000000
siesta:     54    0.030263   -3.476921    0.000000
siesta:     55   -0.599929   -0.320590    0.000000
siesta:     56    0.331836   -0.108575    0.000000
siesta:     57   -0.023021    0.032881    0.000000
siesta:     58   -0.108517    0.107102    0.000000
siesta:     59   -0.003254   -0.008647    0.000000
siesta:     60   -0.026645    0.062700    0.000000
siesta:     61   -0.016900   -0.091880    0.000000
siesta:     62   -0.022557   -0.126566    0.000000
siesta:     63    0.005185   -0.107375    0.000000
siesta:     64    0.000016    0.098444    0.000000
siesta:     65   -0.142827   -0.084986    0.000000
siesta:     66    0.010635    0.325127    0.000000
siesta:     67   -0.192816   -0.024900    0.000000
siesta:     68   -0.420423    0.396395    0.000000
siesta:     69    0.113338   -0.115683    0.000000
siesta:     70    0.028409   -0.042901    0.000000
siesta:     71    0.253558    0.134060    0.000000
siesta:     72   -0.325503   -0.168597    0.000000
siesta: ----------------------------------------
siesta:    Tot    0.194223   -0.282653    0.000000

siesta: Stress tensor (static) (eV/Ang**3):
siesta:    -0.033811   -0.000277    0.000000
siesta:    -0.000277   -0.033092    0.000000
siesta:     0.000000    0.000000   -0.000030

siesta: Cell volume =       1893.226895 Ang**3

siesta: Pressure (static):
siesta:                Solid            Molecule  Units
siesta:           0.00024300          0.00037526  Ry/Bohr**3
siesta:           0.02231126          0.03445555  eV/Ang**3
siesta:          35.74695810         55.20447709  kBar
(Free)E+ p_basis*V_orbitals  =      -11536.295285
(Free)Eharris+ p_basis*V_orbitals  =      -11536.294212

siesta: Electric dipole (a.u.)  =    0.000000    0.000000    0.000000
siesta: Electric dipole (Debye) =    0.000000    0.000000    0.000000

* Maximum dynamic memory allocated : Node    0 =   214 MB
* Maximum dynamic memory allocated : Node    1 =    77 MB
* Maximum dynamic memory allocated : Node    2 =    80 MB
* Maximum dynamic memory allocated : Node    3 =   202 MB
* Maximum dynamic memory allocated : Node    4 =   212 MB
* Maximum dynamic memory allocated : Node    5 =    76 MB
* Maximum dynamic memory allocated : Node    6 =    79 MB
* Maximum dynamic memory allocated : Node    7 =   195 MB

* Maximum memory occured during matrixMtoO                    

timer: CPU execution times:
timer:  Routine       Calls   Time/call    Tot.time        %
timer:  siesta            1   20100.060   20100.060   100.00
timer:  Setup             1       3.799       3.799     0.02
timer:  bands             1       0.018       0.018     0.00
timer:  writewave         1       0.041       0.041     0.00
timer:  KSV_init          1       0.004       0.004     0.00
timer:  IterMD            1   20088.356   20088.356    99.94
timer:  hsparse           1       0.397       0.397     0.00
timer:  overlap           1       4.705       4.705     0.02
timer:  IterSCF           3    6632.840   19898.520    99.00
timer:  kinefsm           2       2.452       4.904     0.02
timer:  nlefsm            2      19.701      39.401     0.20
timer:  DHSCF             4     115.605     462.419     2.30
timer:  DHSCF1            1       0.986       0.986     0.00
timer:  DHSCF2            1      40.561      40.561     0.20
timer:  REORD            34       0.010       0.351     0.00
timer:  POISON            5       2.271      11.355     0.06
timer:  DHSCF3            4      96.522     386.086     1.92
timer:  rhoofd            4      18.222      72.887     0.36
timer:  cellXC            4       3.452      13.807     0.07
timer:  vmat              4      50.267     201.067     1.00
timer:  MolMec            2       0.000       0.000     0.00
timer:  diagon            3    6510.835   19532.505    97.18
timer:  c-eigval       1056       6.704    7079.659    35.22
timer:  c-buildHS      1056       0.120     127.204     0.63
timer:  cdiag          2112       6.886   14544.089    72.36
timer:  cdiag1         2112       0.429     905.717     4.51
timer:  cdiag2         2112       1.911    4036.246    20.08
timer:  cdiag3         2112       3.959    8362.363    41.60
timer:  cdiag4         2112       0.206     435.073     2.16
timer:  c-eigvec       1056       7.262    7668.594    38.15
timer:  c-buildD       1056       4.522    4775.482    23.76
timer:  DHSCF4            1      34.520      34.520     0.17
timer:  dfscf             1      32.052      32.052     0.16
timer:  overfsm           1       0.398       0.398     0.00
timer:  optical           1       6.950       6.950     0.03
  

elaps: ELAPSED times:
elaps:  Routine       Calls   Time/call    Tot.time        %
elaps:  siesta            1    2515.421    2515.421   100.00
elaps:  Setup             1       0.489       0.489     0.02
elaps:  bands             1       0.002       0.002     0.00
elaps:  writewave         1       0.006       0.006     0.00
elaps:  KSV_init          1       0.001       0.001     0.00
elaps:  IterMD            1    2513.936    2513.936    99.94
elaps:  hsparse           1       0.049       0.049     0.00
elaps:  overlap           1       0.973       0.973     0.04
elaps:  IterSCF           3     830.104    2490.312    99.00
elaps:  kinefsm           2       0.501       1.002     0.04
elaps:  nlefsm            2       2.481       4.962     0.20
elaps:  DHSCF             4      15.310      61.241     2.43
elaps:  DHSCF1            1       0.126       0.126     0.01
elaps:  DHSCF2            1       5.072       5.072     0.20
elaps:  REORD            34       0.001       0.047     0.00
elaps:  POISON            5       0.284       1.422     0.06
elaps:  DHSCF3            4      12.077      48.306     1.92
elaps:  rhoofd            4       3.930      15.722     0.63
elaps:  cellXC            4       0.431       1.724     0.07
elaps:  vmat              4       6.289      25.157     1.00
elaps:  MolMec            2       0.000       0.000     0.00
elaps:  diagon            3     814.813    2444.438    97.18
elaps:  c-eigval       1056       0.839     885.820    35.22
elaps:  c-buildHS      1056       0.016      17.384     0.69
elaps:  cdiag          2112       0.848    1790.535    71.18
elaps:  cdiag1         2112       0.053     112.655     4.48
elaps:  cdiag2         2112       0.239     505.037    20.08
elaps:  cdiag3         2112       0.496    1047.684    41.65
elaps:  cdiag4         2112       0.026      55.097     2.19
elaps:  c-eigvec       1056       0.884     933.833    37.12
elaps:  c-buildD       1056       0.591     623.626    24.79
elaps:  DHSCF4            1       7.701       7.701     0.31
elaps:  dfscf             1       7.222       7.222     0.29
elaps:  overfsm           1       0.053       0.053     0.00
elaps:  optical           1       0.001       0.001     0.00
  
>> End of run:  25-NOV-2015  23:22:34
