Siesta Version:                                        siesta-3.2-pl-3
Architecture  : x86_64-unknown-linux-gnu--unknown
Compiler flags: mpiifort -g -O2 -fPIC -xSSE4.1 -fp-model source -shared-intel 
PARALLEL version

* Running on    8 nodes in parallel
>> Start of run:   6-DEC-2015   1:18:33

                           ***********************       
                           *  WELCOME TO SIESTA  *       
                           ***********************       

reinit: Reading from standard input
************************** Dump of input data file ****************************
#(1) General system descriptors
SystemName            GRP_doping    # Descriptive name of the system
SystemLabel           GRP_doping    # Short name for naming files
%include STRUCT.fdf
%include KPT.fdf
%include BASIS.fdf
#%include TS.fdf # for transiesta calculation
#(4) DFT, Grid, SCF
XC.functional         GGA           # LDA or GGA (default = LDA)
XC.authors            PBE           # CA (Ceperley-Aldr) = PZ
                                    #    (Perdew-Zunger) - LDA - Default
                                    # PW92 (Perdew-Wang-92) - LDA
                                    # PBE (Perdew-Burke-Ernzerhof) - GGA
MeshCutoff            200.000000    Ry      # Default: 50.0 Ry ~ 0.444 Bohr
                                    #         100.0 Ry ~ 0.314 Bohr
MaxSCFIterations      500           # Default: 50
DM.MixingWeight       0.05          # Default: 0.25
DM.NumberPulay        10            # Default: 0
DM.PulayOnFile        F             # SystemLabel.P1, SystemLabel.P2
DM.Tolerance          1.d-4         # Default: 1.d-4
DM.UseSaveDM          .true.        # because of the bug
SCFMustConverge       .true.
NeglNonOverlapInt     F             # Default: F
#(5) Eigenvalue problem: order-N or diagonalization
SolutionMethod        Diagon        # or Transiesta
ElectronicTemperature 300.0 K       # Default: 300.0 K
#(6) Molecular dynamics and relaxations
#MD.TypeOfRun          CG            # Type of dynamics:
#MD.VariableCell       F
#MD.NumCGsteps         0           # 0 for single-point / 100 for gopt
#MD.MaxCGDispl         0.2 Bohr      # Default: 0.2 Bohr
#MD.MaxForceTol        0.02 eV/Ang   # Default: 0.04 eV/Ang
#MD.MaxStressTol       1.0 GPa       # Default: 1.0 GPa
# Geometry Constraints
#%block GeometryConstraints
#	position from 1 to 44
#%endblock GeometryConstraints
************************** End of input data file *****************************

reinit: -----------------------------------------------------------------------
reinit: System Name: GRP_doping
reinit: -----------------------------------------------------------------------
reinit: System Label: GRP_doping                                                  
reinit: -----------------------------------------------------------------------

initatom: Reading input for the pseudopotentials and atomic orbitals ----------
 Species number:            1  Label: N Atomic number:           7
 Species number:            2  Label: C Atomic number:           6
Ground state valence configuration:   2s02  2p03
Reading pseudopotential information in formatted form from N.psf

Valence configuration for pseudopotential generation:
2s( 2.00) rc: 1.48
2p( 3.00) rc: 1.48
3d( 0.00) rc: 1.48
4f( 0.00) rc: 1.48
Ground state valence configuration:   2s02  2p02
Reading pseudopotential information in formatted form from C.psf

Valence configuration for pseudopotential generation:
2s( 2.00) rc: 1.54
2p( 2.00) rc: 1.54
3d( 0.00) rc: 1.54
4f( 0.00) rc: 1.54
For N, standard SIESTA heuristics set lmxkb to 3
 (one more than the basis l, including polarization orbitals).
Use PS.lmax or PS.KBprojectors blocks to override.
For C, standard SIESTA heuristics set lmxkb to 3
 (one more than the basis l, including polarization orbitals).
Use PS.lmax or PS.KBprojectors blocks to override.

<basis_specs>
===============================================================================
N                    Z=   7    Mass=  14.010        Charge= 0.17977+309
Lmxo=1 Lmxkb= 3    BasisType=split      Semic=F
L=0  Nsemic=0  Cnfigmx=2
          n=1  nzeta=2  polorb=0
            splnorm:   0.15000    
               vcte:    0.0000    
               rinn:    0.0000    
                rcs:    0.0000      0.0000    
            lambdas:    1.0000      1.0000    
L=1  Nsemic=0  Cnfigmx=2
          n=1  nzeta=2  polorb=1
            splnorm:   0.15000    
               vcte:    0.0000    
               rinn:    0.0000    
                rcs:    0.0000      0.0000    
            lambdas:    1.0000      1.0000    
-------------------------------------------------------------------------------
L=0  Nkbl=1  erefs: 0.17977+309
L=1  Nkbl=1  erefs: 0.17977+309
L=2  Nkbl=1  erefs: 0.17977+309
L=3  Nkbl=1  erefs: 0.17977+309
===============================================================================
</basis_specs>

atom: Called for N                     (Z =   7)

read_vps: Pseudopotential generation method:
read_vps: ATM3      Troullier-Martins                       
Total valence charge:    5.00000

read_vps: Pseudopotential includes a core correction:
read_vps: Pseudo-core for xc-correction

xc_check: Exchange-correlation functional:
xc_check: GGA Perdew, Burke & Ernzerhof 1996
V l=0 = -2*Zval/r beyond r=  1.4606
V l=1 = -2*Zval/r beyond r=  1.4606
V l=2 = -2*Zval/r beyond r=  1.4606
V l=3 = -2*Zval/r beyond r=  1.4606
All V_l potentials equal beyond r=  1.4606
This should be close to max(r_c) in ps generation
All pots = -2*Zval/r beyond r=  1.4606

VLOCAL1: 99.0% of the norm of Vloc inside     20.347 Ry
VLOCAL1: 99.9% of the norm of Vloc inside     46.372 Ry
atom: Maximum radius for 4*pi*r*r*local-pseudopot. charge    1.76189
atom: Maximum radius for r*vlocal+2*Zval:    1.53550
GHOST: No ghost state for L =  0
GHOST: No ghost state for L =  1
GHOST: No ghost state for L =  2
GHOST: No ghost state for L =  3

KBgen: Kleinman-Bylander projectors: 
   l= 0   rc=  1.634559   el= -1.363963   Ekb=  5.296955   kbcos=  0.335621
   l= 1   rc=  1.614250   el= -0.521451   Ekb= -5.259161   kbcos= -0.433408
   l= 2   rc=  1.718383   el=  0.001991   Ekb= -1.271464   kbcos= -0.007566
   l= 3   rc=  1.761893   el=  0.003093   Ekb= -0.494769   kbcos= -0.001015

KBgen: Total number of  Kleinman-Bylander projectors:   16
atom: -------------------------------------------------------------------------

atom: SANKEY-TYPE ORBITALS:
atom: Selected multiple-zeta basis: split     

SPLIT: Orbitals with angular momentum L= 0

SPLIT: Basis orbitals for state 2s

SPLIT: PAO cut-off radius determined from an
SPLIT: energy shift=  0.007350 Ry

   izeta = 1
                 lambda =    1.000000
                     rc =    4.071465
                 energy =   -1.356470
                kinetic =    1.176977
    potential(screened) =   -2.533447
       potential(ionic) =   -8.057990

   izeta = 2
                 rmatch =    2.905100
              splitnorm =    0.150000
                 energy =   -1.158343
                kinetic =    1.813009
    potential(screened) =   -2.971352
       potential(ionic) =   -8.901931

SPLIT: Orbitals with angular momentum L= 1

SPLIT: Basis orbitals for state 2p

SPLIT: PAO cut-off radius determined from an
SPLIT: energy shift=  0.007350 Ry

   izeta = 1
                 lambda =    1.000000
                     rc =    4.972977
                 energy =   -0.513884
                kinetic =    3.441732
    potential(screened) =   -3.955616
       potential(ionic) =   -9.287901

   izeta = 2
                 rmatch =    3.054066
              splitnorm =    0.150000
                 energy =   -0.318226
                kinetic =    5.125348
    potential(screened) =   -5.443573
       potential(ionic) =  -11.380999

POLgen: Perturbative polarization orbital with L=  2

POLgen: Polarization orbital for state 2p

   izeta = 1
                     rc =    4.972977
                 energy =    1.607437
                kinetic =    3.268125
    potential(screened) =   -1.660688
       potential(ionic) =   -5.973652
atom: Total number of Sankey-type orbitals: 13

atm_pop: Valence configuration (for local Pseudopot. screening):
 2s( 2.00)                                                            
 2p( 3.00)                                                            
Vna: chval, zval:    5.00000   5.00000

Vna:  Cut-off radius for the neutral-atom potential:   4.972977
comcore: Pseudo-core radius Rcore=  1.554824

atom: _________________________________________________________________________

<basis_specs>
===============================================================================
C                    Z=   6    Mass=  12.010        Charge= 0.17977+309
Lmxo=1 Lmxkb= 3    BasisType=split      Semic=F
L=0  Nsemic=0  Cnfigmx=2
          n=1  nzeta=2  polorb=0
            splnorm:   0.15000    
               vcte:    0.0000    
               rinn:    0.0000    
                rcs:    0.0000      0.0000    
            lambdas:    1.0000      1.0000    
L=1  Nsemic=0  Cnfigmx=2
          n=1  nzeta=2  polorb=1
            splnorm:   0.15000    
               vcte:    0.0000    
               rinn:    0.0000    
                rcs:    0.0000      0.0000    
            lambdas:    1.0000      1.0000    
-------------------------------------------------------------------------------
L=0  Nkbl=1  erefs: 0.17977+309
L=1  Nkbl=1  erefs: 0.17977+309
L=2  Nkbl=1  erefs: 0.17977+309
L=3  Nkbl=1  erefs: 0.17977+309
===============================================================================
</basis_specs>

atom: Called for C                     (Z =   6)

read_vps: Pseudopotential generation method:
read_vps: ATM3      Troullier-Martins                       
Total valence charge:    4.00000

read_vps: Pseudopotential includes a core correction:
read_vps: Pseudo-core for xc-correction

xc_check: Exchange-correlation functional:
xc_check: GGA Perdew, Burke & Ernzerhof 1996
V l=0 = -2*Zval/r beyond r=  1.5227
V l=1 = -2*Zval/r beyond r=  1.5227
V l=2 = -2*Zval/r beyond r=  1.5227
V l=3 = -2*Zval/r beyond r=  1.5038
All V_l potentials equal beyond r=  1.5227
This should be close to max(r_c) in ps generation
All pots = -2*Zval/r beyond r=  1.5227

VLOCAL1: 99.0% of the norm of Vloc inside     18.722 Ry
VLOCAL1: 99.9% of the norm of Vloc inside     42.668 Ry
atom: Maximum radius for 4*pi*r*r*local-pseudopot. charge    1.83678
atom: Maximum radius for r*vlocal+2*Zval:    1.58088
GHOST: No ghost state for L =  0
GHOST: No ghost state for L =  1
GHOST: No ghost state for L =  2
GHOST: No ghost state for L =  3

KBgen: Kleinman-Bylander projectors: 
   l= 0   rc=  1.704034   el= -1.009801   Ekb=  5.335044   kbcos=  0.316824
   l= 1   rc=  1.704034   el= -0.388707   Ekb= -3.785862   kbcos= -0.366464
   l= 2   rc=  1.791422   el=  0.001971   Ekb= -0.970471   kbcos= -0.009212
   l= 3   rc=  1.859892   el=  0.003065   Ekb= -0.399525   kbcos= -0.001223

KBgen: Total number of  Kleinman-Bylander projectors:   16
atom: -------------------------------------------------------------------------

atom: SANKEY-TYPE ORBITALS:
atom: Selected multiple-zeta basis: split     

SPLIT: Orbitals with angular momentum L= 0

SPLIT: Basis orbitals for state 2s

SPLIT: PAO cut-off radius determined from an
SPLIT: energy shift=  0.007350 Ry

   izeta = 1
                 lambda =    1.000000
                     rc =    4.632753
                 energy =   -1.002270
                kinetic =    0.855760
    potential(screened) =   -1.858031
       potential(ionic) =   -5.417575

   izeta = 2
                 rmatch =    3.431921
              splitnorm =    0.150000
                 energy =   -0.867111
                kinetic =    1.300804
    potential(screened) =   -2.167915
       potential(ionic) =   -5.962684

SPLIT: Orbitals with angular momentum L= 1

SPLIT: Basis orbitals for state 2p

SPLIT: PAO cut-off radius determined from an
SPLIT: energy shift=  0.007350 Ry

   izeta = 1
                 lambda =    1.000000
                     rc =    5.658549
                 energy =   -0.381140
                kinetic =    2.399701
    potential(screened) =   -2.780841
       potential(ionic) =   -6.206085

   izeta = 2
                 rmatch =    3.653288
              splitnorm =    0.150000
                 energy =   -0.249149
                kinetic =    3.542762
    potential(screened) =   -3.791911
       potential(ionic) =   -7.581078

POLgen: Perturbative polarization orbital with L=  2

POLgen: Polarization orbital for state 2p

   izeta = 1
                     rc =    5.658549
                 energy =    1.109913
                kinetic =    2.304789
    potential(screened) =   -1.194876
       potential(ionic) =   -4.013592
atom: Total number of Sankey-type orbitals: 13

atm_pop: Valence configuration (for local Pseudopot. screening):
 2s( 2.00)                                                            
 2p( 2.00)                                                            
Vna: chval, zval:    4.00000   4.00000

Vna:  Cut-off radius for the neutral-atom potential:   5.658549
comcore: Pseudo-core radius Rcore=  1.791422

atom: _________________________________________________________________________

prinput: Basis input ----------------------------------------------------------

PAO.BasisType split     

%block ChemicalSpeciesLabel
    1    7 N                       # Species index, atomic number, species label
    2    6 C                       # Species index, atomic number, species label
%endblock ChemicalSpeciesLabel

%block PAO.Basis                 # Define Basis set
N                     2                    # Species label, number of l-shells
 n=2   0   2                         # n, l, Nzeta 
   4.071      2.905   
   1.000      1.000   
 n=2   1   2 P   1                   # n, l, Nzeta, Polarization, NzetaPol
   4.973      3.054   
   1.000      1.000   
C                     2                    # Species label, number of l-shells
 n=2   0   2                         # n, l, Nzeta 
   4.633      3.432   
   1.000      1.000   
 n=2   1   2 P   1                   # n, l, Nzeta, Polarization, NzetaPol
   5.659      3.653   
   1.000      1.000   
%endblock PAO.Basis

prinput: ----------------------------------------------------------------------

coor:   Atomic-coordinates input format  =     Cartesian coordinates
coor:                                          (in Angstroms)

siesta: Atomic coordinates (Bohr) and species
siesta:      2.23554   1.32097   0.00000  1        1
siesta:     34.83141  22.82873   0.00000  1        2
siesta:     34.83104  14.76308   0.00000  1        3
siesta:     30.17453   6.69743   0.00000  1        4
siesta:     30.17527  22.82873   0.00000  1        5
siesta:     11.54782   1.32097   0.00000  1        6
siesta:     20.86199   1.32097   0.00000  1        7
siesta:      6.89193   6.69743   0.00000  1        8
siesta:     11.54807   6.69743   0.00000  1        9
siesta:     16.20421   6.69743   0.00000  1       10
siesta:     20.86224   6.69743   0.00000  1       11
siesta:     25.51838   6.69743   0.00000  1       12
siesta:      6.89205   9.38661   0.00000  1       13
siesta:     16.20434   9.38661   0.00000  1       14
siesta:     11.54845  14.76308   0.00000  1       15
siesta:     16.20459  14.76308   0.00000  1       16
siesta:     20.86262  14.76308   0.00000  1       17
siesta:     11.54857  17.45226   0.00000  1       18
siesta:     16.20496  22.82873   0.00000  1       19
siesta:     20.86299  22.82873   0.00000  1       20
siesta:     25.51851   9.38661   0.00000  1       21
siesta:     25.51876  14.76308   0.00000  1       22
siesta:     20.86274  17.45226   0.00000  1       23
siesta:     30.17490  14.76308   0.00000  1       24
siesta:     25.51913  22.82873   0.00000  1       25
siesta:     30.17503  17.45226   0.00000  1       26
siesta:     39.48945  22.82873   0.00000  1       27
siesta:      4.56367   2.66461   0.00000  2       28
siesta:     32.50328  21.48508   0.00000  2       29
siesta:     34.83116  17.45226   0.00000  2       30
siesta:     37.15930  18.79590   0.00000  2       31
siesta:     32.50291  13.41944   0.00000  2       32
siesta:     30.17465   9.38661   0.00000  2       33
siesta:     32.50278  10.73026   0.00000  2       34
siesta:     27.84639   5.35379   0.00000  2       35
siesta:     27.84714  21.48508   0.00000  2       36
siesta:      6.89168   1.32097   0.00000  2       37
siesta:      9.21981   2.66461   0.00000  2       38
siesta:     13.87595   2.66461   0.00000  2       39
siesta:     16.20396   1.32097   0.00000  2       40
siesta:     18.53210   2.66461   0.00000  2       41
siesta:     23.19013   2.66461   0.00000  2       42
siesta:     25.51813   1.32097   0.00000  2       43
siesta:     27.84627   2.66461   0.00000  2       44
siesta:      4.56380   5.35379   0.00000  2       45
siesta:      9.21994   5.35379   0.00000  2       46
siesta:     13.87608   5.35379   0.00000  2       47
siesta:     18.53411   5.35379   0.00000  2       48
siesta:     23.19025   5.35379   0.00000  2       49
siesta:      9.22019  10.73026   0.00000  2       50
siesta:     11.54820   9.38661   0.00000  2       51
siesta:     13.87633  10.73026   0.00000  2       52
siesta:     18.53247  10.73026   0.00000  2       53
siesta:     20.86237   9.38661   0.00000  2       54
siesta:     23.19050  10.73026   0.00000  2       55
siesta:      9.22031  13.41944   0.00000  2       56
siesta:     13.87645  13.41944   0.00000  2       57
siesta:     18.53448  13.41944   0.00000  2       58
siesta:     13.87670  18.79590   0.00000  2       59
siesta:     16.20471  17.45226   0.00000  2       60
siesta:     18.53284  18.79590   0.00000  2       61
siesta:     13.87683  21.48508   0.00000  2       62
siesta:     18.53486  21.48508   0.00000  2       63
siesta:     27.84664  10.73026   0.00000  2       64
siesta:     23.19063  13.41944   0.00000  2       65
siesta:     23.19088  18.79590   0.00000  2       66
siesta:     27.84677  13.41944   0.00000  2       67
siesta:     25.51888  17.45226   0.00000  2       68
siesta:     27.84702  18.79590   0.00000  2       69
siesta:     23.19100  21.48508   0.00000  2       70
siesta:     32.50316  18.79590   0.00000  2       71
siesta:     37.16131  21.48508   0.00000  2       72

siesta: System type = slab      

initatomlists: Number of atoms, orbitals, and projectors:     72   936  1152

siesta: ******************** Simulation parameters ****************************
siesta:
siesta: The following are some of the parameters of the simulation.
siesta: A complete list of the parameters used, including default values,
siesta: can be found in file out.fdf
siesta:
redata: Non-Collinear-spin run           =     F
redata: SpinPolarized (Up/Down) run      =     F
redata: Number of spin components        =     1
redata: Long output                      =     F
redata: Number of Atomic Species         =        2
redata: Charge density info will appear in .RHO file
redata: Write Mulliken Pop.              =     NO
redata: Mesh Cutoff                      =   200.0000  Ry
redata: Net charge of the system         =     0.0000 |e|
redata: Max. number of SCF Iter          =      500
redata: SCF convergence failure will abort job
redata: Performing Pulay mixing using    =    10 iterations
redata: Mix DM in first SCF step ?       =     F
redata: Write Pulay info on disk?        =     F
redata: Discard 1st Pulay DM after  kick =     F
redata: New DM Mixing Weight             =     0.0500
redata: New DM Occupancy tolerance       = 0.000000000001
redata: No kicks to SCF
redata: DM Mixing Weight for Kicks       =     0.5000
redata: DM Tolerance for SCF             =     0.000100
redata: Require Energy convergence for SCF =     F
redata: DM Energy tolerance for SCF      =     0.000100 eV
redata: Require Harris convergence for SCF =     F
redata: DM Harris energy tolerance for SCF =     0.000100 eV
redata: Using Saved Data (generic)   =     F
redata: Use continuation files for DM    =     T
redata: Neglect nonoverlap interactions  =     F
redata: Method of Calculation            =     Diagonalization
redata: Divide and Conquer               =     T
redata: Electronic Temperature           =     0.0019  Ry
redata: Fix the spin of the system       =     F
redata: Dynamics option                  =     Verlet MD run
redata: Initial MD time step             =        1
redata:   Final MD time step             =        1
redata: Length of MD time step           =     1.0000  fs
redata: Initial Temperature of MD run    =     0.0000  K
redata: Perform a MD quench              =     F
redata: ***********************************************************************
Total number of electrons:   315.000000
Total ionic charge:   315.000000

* ProcessorY, Blocksize:    2  24

k-point displ. along   1 input, could be:     0.00    0.50
k-point displ. along   2 input, could be:     0.00    0.50
 Kpoints in:          364 . Kpoints trimmed:          352

siesta: k-grid: Number of k-points =   352
siesta: k-grid: Cutoff (effective) =     5.000 Ang
siesta: k-grid: Supercell and displacements
siesta: k-grid:   26   0   0      0.000
siesta: k-grid:    0  26   0      0.000
siesta: k-grid:    0   0   1      0.000
Naive supercell factors:     2    2    2

superc: Internal auxiliary supercell:     2 x     2 x     2  =       8
superc: Number of atoms, orbitals, and projectors:    576   7488   9216

* Maximum dynamic memory allocated =     6 MB

siesta:                 ==============================
                            Begin MD step =      1
                        ==============================

superc: Internal auxiliary supercell:     2 x     2 x     2  =       8
superc: Number of atoms, orbitals, and projectors:    576   7488   9216

outcell: Unit cell vectors (Ang):
       14.785000    0.000000    0.000000
        7.393000   12.805052    0.000000
        0.000000    0.000000   10.000000

outcell: Cell vector modules (Ang)   :   14.785000   14.786000   10.000000
outcell: Cell angles (23,13,12) (deg):     90.0000     90.0000     60.0000
outcell: Cell volume (Ang**3)        :   1893.2269
New_DM. Step:     1
Initializing Density Matrix...

InitMesh: MESH =   120 x   120 x    90 =     1296000
InitMesh: Mesh cutoff (required, used) =   200.000   223.865 Ry

* Maximum dynamic memory allocated =   174 MB

stepf: Fermi-Dirac step function

siesta: Program's energy decomposition (eV):
siesta: Ebs     =     -4927.989060
siesta: Eions   =     22743.175864
siesta: Ena     =      4240.732216
siesta: Ekin    =      8644.090471
siesta: Enl     =      -529.722115
siesta: DEna    =        -0.000012
siesta: DUscf   =         0.000000
siesta: DUext   =         0.000000
siesta: Exc     =     -4604.878707
siesta: eta*DQ  =         0.000000
siesta: Emadel  =         0.000000
siesta: Emeta   =         0.000000
siesta: Emolmec =         0.000000
siesta: Ekinion =         0.000000
siesta: Eharris =    -14843.905027
siesta: Etot    =    -14992.954012
siesta: FreeEng =    -14992.954012

siesta: iscf   Eharris(eV)      E_KS(eV)   FreeEng(eV)   dDmax  Ef(eV)
siesta:    1   -14843.9050   -14992.9540   -14992.9540  1.9500 -3.4516
timer: Routine,Calls,Time,% = IterSCF        1    7479.497  99.85
elaps: Routine,Calls,Wall,% = IterSCF        1     936.284  99.85
siesta:    2   -14848.8466   -14822.7646   -14822.7897  0.2131 -2.1856
siesta:    3   -14841.3317   -14836.9451   -14836.9765  0.1691 -2.2543
siesta:    4   -14834.2811   -14833.4559   -14833.4807  0.1102 -2.3000
siesta:    5   -14832.4690   -14830.9546   -14830.9781  0.0559 -2.3751
siesta:    6   -14832.2217   -14831.1334   -14831.1576  0.0342 -2.4440
siesta:    7   -14832.1435   -14830.5915   -14830.6156  0.0078 -2.5678
siesta:    8   -14832.1257   -14831.2508   -14831.2747  0.0064 -2.5651
siesta:    9   -14832.1264   -14831.3431   -14831.3672  0.0053 -2.5628
siesta:   10   -14832.1236   -14831.8247   -14831.8489  0.0026 -2.5614
siesta:   11   -14832.1233   -14831.9747   -14831.9988  0.0007 -2.5606
siesta:   12   -14832.1233   -14831.9885   -14832.0126  0.0005 -2.5604
siesta:   13   -14832.1232   -14832.0569   -14832.0810  0.0004 -2.5601
siesta:   14   -14832.1232   -14832.0921   -14832.1161  0.0002 -2.5597
siesta:   15   -14832.1232   -14832.1044   -14832.1285  0.0001 -2.5597

siesta: E_KS(eV) =           -14832.1137

siesta: E_KS - E_eggbox =    -14832.1137

siesta: Atomic forces (eV/Ang):
----------------------------------------
   Tot    0.752335    0.268642    0.000000
----------------------------------------
   Max    1.221699
   Res    0.430571    sqrt( Sum f_i^2 / 3N )
----------------------------------------
   Max    1.221699    constrained

Stress-tensor-Voigt (kbar):       57.83       62.78        0.36       -0.16        0.00        0.00
(Free)E + p*V (eV/cell)   -14879.7834
Target enthalpy (eV/cell)   -14832.1378

siesta: Stress tensor (static) (eV/Ang**3):
         0.036092   -0.000099    0.000000
        -0.000099    0.039181    0.000000
         0.000000    0.000000    0.000226

siesta: Pressure (static):        -40.32133628  kBar

siesta: Stress tensor (total) (eV/Ang**3):
         0.036092   -0.000099    0.000000
        -0.000099    0.039181    0.000000
         0.000000    0.000000    0.000226

siesta: Pressure (total):        -40.32133628  kBar

siesta: Temp_ion =       0.000 K

* Maximum dynamic memory allocated =   189 MB

siesta: Program's energy decomposition (eV):
siesta: Ebs     =     -4664.889264
siesta: Eions   =     22743.175864
siesta: Ena     =      4240.732216
siesta: Ekin    =     10095.186295
siesta: Enl     =     -1595.871619
siesta: DEna    =      -174.632174
siesta: DUscf   =        21.400381
siesta: DUext   =         0.000000
siesta: Exc     =     -4675.752962
siesta: eta*DQ  =         0.000000
siesta: Emadel  =         0.000000
siesta: Emeta   =         0.000000
siesta: Emolmec =         0.000000
siesta: Ekinion =         0.000000
siesta: Eharris =    -14832.123192
siesta: Etot    =    -14832.113727
siesta: FreeEng =    -14832.137811

siesta: Final energy (eV):
siesta:  Band Struct. =   -4664.889264
siesta:       Kinetic =   10095.186295
siesta:       Hartree =   28284.699525
siesta:    Ext. field =       0.000000
siesta:   Exch.-corr. =   -4675.752962
siesta:  Ion-electron =  -66046.490516
siesta:       Ion-ion =   17510.243931
siesta:       Ekinion =       0.000000
siesta:         Total =  -14832.113727

siesta: Atomic forces (eV/Ang):
siesta:      1   -0.007308    0.178007    0.000000
siesta:      2    0.049981    0.671387    0.000000
siesta:      3    0.035157    0.820063    0.000000
siesta:      4    0.036139    0.820993    0.000000
siesta:      5    0.022591    0.840536    0.000000
siesta:      6    0.016218    0.174374    0.000000
siesta:      7   -0.020442    0.178884    0.000000
siesta:      8    0.016393    0.662786    0.000000
siesta:      9    0.026384    0.824980    0.000000
siesta:     10    0.041533    0.657128    0.000000
siesta:     11    0.021818    0.822339    0.000000
siesta:     12    0.019730    0.662126    0.000000
siesta:     13    0.002465    0.194254    0.000000
siesta:     14    0.016736    0.194225    0.000000
siesta:     15    0.018491    0.662633    0.000000
siesta:     16    0.047594    0.820061    0.000000
siesta:     17    0.013000    0.659234    0.000000
siesta:     18    0.000563    0.190828    0.000000
siesta:     19    0.051146    0.670974    0.000000
siesta:     20    0.017991    0.839303    0.000000
siesta:     21    0.013121    0.190323    0.000000
siesta:     22    0.025740    0.824286    0.000000
siesta:     23   -0.011661    0.195851    0.000000
siesta:     24    0.018092    0.662499    0.000000
siesta:     25    0.013518    0.678124    0.000000
siesta:     26    0.013758    0.190154    0.000000
siesta:     27    0.007071    0.843590    0.000000
siesta:     28   -0.169366   -0.100539    0.000000
siesta:     29   -0.919707   -0.123796    0.000000
siesta:     30    0.010859   -1.201615    0.000000
siesta:     31    0.197941   -0.093622    0.000000
siesta:     32    0.934848   -0.126286    0.000000
siesta:     33    0.008940   -1.206401    0.000000
siesta:     34    0.188396   -0.095973    0.000000
siesta:     35    0.933698   -0.127987    0.000000
siesta:     36    0.933180   -0.124249    0.000000
siesta:     37    0.010643   -1.221478    0.000000
siesta:     38    0.177034   -0.094840    0.000000
siesta:     39   -0.167126   -0.096538    0.000000
siesta:     40    0.016215   -1.220175    0.000000
siesta:     41    0.210855   -0.096993    0.000000
siesta:     42   -0.170770   -0.101832    0.000000
siesta:     43    0.011830   -1.221699    0.000000
siesta:     44    0.189785   -0.094181    0.000000
siesta:     45   -0.933122   -0.124618    0.000000
siesta:     46    0.932062   -0.127535    0.000000
siesta:     47   -0.920196   -0.130266    0.000000
siesta:     48    0.901623   -0.121013    0.000000
siesta:     49   -0.923589   -0.128366    0.000000
siesta:     50   -0.169112   -0.094424    0.000000
siesta:     51    0.006731   -1.205044    0.000000
siesta:     52    0.178242   -0.092076    0.000000
siesta:     53   -0.131008   -0.104313    0.000000
siesta:     54   -0.020360   -1.195347    0.000000
siesta:     55    0.173147   -0.093886    0.000000
siesta:     56   -0.933398   -0.125436    0.000000
siesta:     57    0.934497   -0.126809    0.000000
siesta:     58   -0.952951   -0.122678    0.000000
siesta:     59   -0.167333   -0.093522    0.000000
siesta:     60    0.012532   -1.203295    0.000000
siesta:     61    0.209417   -0.096927    0.000000
siesta:     62   -0.908321   -0.127254    0.000000
siesta:     63    0.900272   -0.120392    0.000000
siesta:     64   -0.166879   -0.094839    0.000000
siesta:     65    0.931989   -0.125860    0.000000
siesta:     66   -0.170642   -0.094908    0.000000
siesta:     67   -0.923487   -0.128411    0.000000
siesta:     68    0.006557   -1.204161    0.000000
siesta:     69    0.177202   -0.091790    0.000000
siesta:     70   -0.923552   -0.126235    0.000000
siesta:     71   -0.167059   -0.093622    0.000000
siesta:     72    0.896001   -0.120073    0.000000
siesta: ----------------------------------------
siesta:    Tot    0.752335    0.268642    0.000000

siesta: Stress tensor (static) (eV/Ang**3):
siesta:     0.036092   -0.000099    0.000000
siesta:    -0.000099    0.039181    0.000000
siesta:     0.000000    0.000000    0.000226

siesta: Cell volume =       1893.226895 Ang**3

siesta: Pressure (static):
siesta:                Solid            Molecule  Units
siesta:          -0.00027409         -0.00038505  Ry/Bohr**3
siesta:          -0.02516633         -0.03535374  eV/Ang**3
siesta:         -40.32133628        -56.64355038  kBar
(Free)E+ p_basis*V_orbitals  =      -14805.260211
(Free)Eharris+ p_basis*V_orbitals  =      -14805.279012

siesta: Electric dipole (a.u.)  =    0.000000    0.000000    0.000000
siesta: Electric dipole (Debye) =    0.000000    0.000000    0.000000

* Maximum dynamic memory allocated : Node    0 =   189 MB
* Maximum dynamic memory allocated : Node    1 =    71 MB
* Maximum dynamic memory allocated : Node    2 =    72 MB
* Maximum dynamic memory allocated : Node    3 =   179 MB
* Maximum dynamic memory allocated : Node    4 =   189 MB
* Maximum dynamic memory allocated : Node    5 =    70 MB
* Maximum dynamic memory allocated : Node    6 =    72 MB
* Maximum dynamic memory allocated : Node    7 =   175 MB

* Maximum memory occured during matrixMtoO                    

timer: CPU execution times:
timer:  Routine       Calls   Time/call    Tot.time        %
timer:  siesta            1  110913.180  110913.180   100.00
timer:  Setup             1       3.108       3.108     0.00
timer:  bands             1       0.007       0.007     0.00
timer:  writewave         1       0.015       0.015     0.00
timer:  KSV_init          1       0.002       0.002     0.00
timer:  IterMD            1  110901.898  110901.898    99.99
timer:  hsparse           1       0.263       0.263     0.00
timer:  overlap           1       7.683       7.683     0.01
timer:  IterSCF          15    7383.347  110750.205    99.85
timer:  kinefsm           2       3.927       7.854     0.01
timer:  nlefsm            2      17.461      34.921     0.03
timer:  DHSCF            16      83.247    1331.950     1.20
timer:  DHSCF1            1       0.831       0.831     0.00
timer:  DHSCF2            1      32.894      32.894     0.03
timer:  REORD           130       0.014       1.779     0.00
timer:  POISON           17       3.672      62.430     0.06
timer:  DHSCF3           16      79.351    1269.619     1.14
timer:  rhoofd           16      14.428     230.854     0.21
timer:  cellXC           16       3.550      56.795     0.05
timer:  vmat             16      37.183     594.921     0.54
timer:  MolMec            2       0.000       0.000     0.00
timer:  diagon           15    7298.414  109476.208    98.70
timer:  c-eigval       5280       7.201   38021.750    34.28
timer:  c-buildHS      5280       0.202    1064.189     0.96
timer:  cdiag         10560       7.390   78042.601    70.36
timer:  cdiag1        10560       0.468    4945.455     4.46
timer:  cdiag2        10560       1.966   20766.042    18.72
timer:  cdiag3        10560       4.167   44000.372    39.67
timer:  cdiag4        10560       0.245    2587.717     2.33
timer:  c-eigvec       5280       7.870   41554.193    37.47
timer:  c-buildD       5280       5.651   29839.285    26.90
timer:  DHSCF4            1      27.219      27.219     0.02
timer:  dfscf             1      25.464      25.464     0.02
timer:  overfsm           1       0.364       0.364     0.00
timer:  optical           1       7.150       7.150     0.01
  

elaps: ELAPSED times:
elaps:  Routine       Calls   Time/call    Tot.time        %
elaps:  siesta            1   13883.510   13883.510   100.00
elaps:  Setup             1       0.387       0.387     0.00
elaps:  bands             1       0.001       0.001     0.00
elaps:  writewave         1       0.002       0.002     0.00
elaps:  KSV_init          1       0.000       0.000     0.00
elaps:  IterMD            1   13882.099   13882.099    99.99
elaps:  hsparse           1       0.033       0.033     0.00
elaps:  overlap           1       0.964       0.964     0.01
elaps:  IterSCF          15     924.208   13863.122    99.85
elaps:  kinefsm           2       0.494       0.987     0.01
elaps:  nlefsm            2       2.236       4.472     0.03
elaps:  DHSCF            16      10.593     169.483     1.22
elaps:  DHSCF1            1       0.112       0.112     0.00
elaps:  DHSCF2            1       4.106       4.106     0.03
elaps:  REORD           130       0.002       0.230     0.00
elaps:  POISON           17       0.460       7.816     0.06
elaps:  DHSCF3           16       9.929     158.860     1.14
elaps:  rhoofd           16       3.001      48.021     0.35
elaps:  cellXC           16       0.443       7.092     0.05
elaps:  vmat             16       4.652      74.439     0.54
elaps:  MolMec            2       0.000       0.000     0.00
elaps:  diagon           15     913.612   13704.184    98.71
elaps:  c-eigval       5280       0.901    4758.063    34.27
elaps:  c-buildHS      5280       0.027     140.402     1.01
elaps:  cdiag         10560       0.910    9604.697    69.18
elaps:  cdiag1        10560       0.057     596.810     4.30
elaps:  cdiag2        10560       0.246    2598.631    18.72
elaps:  cdiag3        10560       0.522    5514.029    39.72
elaps:  cdiag4        10560       0.034     356.318     2.57
elaps:  c-eigvec       5280       0.961    5072.767    36.54
elaps:  c-buildD       5280       0.732    3864.420    27.83
elaps:  DHSCF4            1       6.215       6.215     0.04
elaps:  dfscf             1       5.855       5.855     0.04
elaps:  overfsm           1       0.048       0.048     0.00
elaps:  optical           1       0.000       0.000     0.00
  
>> End of run:   6-DEC-2015   5:09:56
