Siesta Version:                                        siesta-3.2-pl-3
Architecture  : x86_64-unknown-linux-gnu--unknown
Compiler flags: mpiifort -g -O2 -fPIC -xSSE4.1 -fp-model source -shared-intel 
PARALLEL version

* Running on    8 nodes in parallel
>> Start of run:  30-NOV-2015  14:57:13

                           ***********************       
                           *  WELCOME TO SIESTA  *       
                           ***********************       

reinit: Reading from standard input
************************** Dump of input data file ****************************
#(1) General system descriptors
SystemName            GRP_doping    # Descriptive name of the system
SystemLabel           GRP_doping    # Short name for naming files
%include STRUCT.fdf
%include KPT.fdf
%include BASIS.fdf
#%include TS.fdf # for transiesta calculation
#(4) DFT, Grid, SCF
XC.functional         GGA           # LDA or GGA (default = LDA)
XC.authors            PBE           # CA (Ceperley-Aldr) = PZ
                                    #    (Perdew-Zunger) - LDA - Default
                                    # PW92 (Perdew-Wang-92) - LDA
                                    # PBE (Perdew-Burke-Ernzerhof) - GGA
MeshCutoff            200.000000    Ry      # Default: 50.0 Ry ~ 0.444 Bohr
                                    #         100.0 Ry ~ 0.314 Bohr
MaxSCFIterations      500           # Default: 50
DM.MixingWeight       0.05          # Default: 0.25
DM.NumberPulay        10            # Default: 0
DM.PulayOnFile        F             # SystemLabel.P1, SystemLabel.P2
DM.Tolerance          1.d-4         # Default: 1.d-4
DM.UseSaveDM          .true.        # because of the bug
SCFMustConverge       .true.
NeglNonOverlapInt     F             # Default: F
#(5) Eigenvalue problem: order-N or diagonalization
SolutionMethod        Diagon        # or Transiesta
ElectronicTemperature 300.0 K       # Default: 300.0 K
#(6) Molecular dynamics and relaxations
#MD.TypeOfRun          CG            # Type of dynamics:
#MD.VariableCell       F
#MD.NumCGsteps         0           # 0 for single-point / 100 for gopt
#MD.MaxCGDispl         0.2 Bohr      # Default: 0.2 Bohr
#MD.MaxForceTol        0.02 eV/Ang   # Default: 0.04 eV/Ang
#MD.MaxStressTol       1.0 GPa       # Default: 1.0 GPa
# Geometry Constraints
#%block GeometryConstraints
#	position from 1 to 44
#%endblock GeometryConstraints
************************** End of input data file *****************************

reinit: -----------------------------------------------------------------------
reinit: System Name: GRP_doping
reinit: -----------------------------------------------------------------------
reinit: System Label: GRP_doping                                                  
reinit: -----------------------------------------------------------------------

initatom: Reading input for the pseudopotentials and atomic orbitals ----------
 Species number:            1  Label: C Atomic number:           6
 Species number:            2  Label: N Atomic number:           7
Ground state valence configuration:   2s02  2p02
Reading pseudopotential information in formatted form from C.psf

Valence configuration for pseudopotential generation:
2s( 2.00) rc: 1.54
2p( 2.00) rc: 1.54
3d( 0.00) rc: 1.54
4f( 0.00) rc: 1.54
Ground state valence configuration:   2s02  2p03
Reading pseudopotential information in formatted form from N.psf

Valence configuration for pseudopotential generation:
2s( 2.00) rc: 1.48
2p( 3.00) rc: 1.48
3d( 0.00) rc: 1.48
4f( 0.00) rc: 1.48
For C, standard SIESTA heuristics set lmxkb to 3
 (one more than the basis l, including polarization orbitals).
Use PS.lmax or PS.KBprojectors blocks to override.
For N, standard SIESTA heuristics set lmxkb to 3
 (one more than the basis l, including polarization orbitals).
Use PS.lmax or PS.KBprojectors blocks to override.

<basis_specs>
===============================================================================
C                    Z=   6    Mass=  12.010        Charge= 0.17977+309
Lmxo=1 Lmxkb= 3    BasisType=split      Semic=F
L=0  Nsemic=0  Cnfigmx=2
          n=1  nzeta=2  polorb=0
            splnorm:   0.15000    
               vcte:    0.0000    
               rinn:    0.0000    
                rcs:    0.0000      0.0000    
            lambdas:    1.0000      1.0000    
L=1  Nsemic=0  Cnfigmx=2
          n=1  nzeta=2  polorb=1
            splnorm:   0.15000    
               vcte:    0.0000    
               rinn:    0.0000    
                rcs:    0.0000      0.0000    
            lambdas:    1.0000      1.0000    
-------------------------------------------------------------------------------
L=0  Nkbl=1  erefs: 0.17977+309
L=1  Nkbl=1  erefs: 0.17977+309
L=2  Nkbl=1  erefs: 0.17977+309
L=3  Nkbl=1  erefs: 0.17977+309
===============================================================================
</basis_specs>

atom: Called for C                     (Z =   6)

read_vps: Pseudopotential generation method:
read_vps: ATM3      Troullier-Martins                       
Total valence charge:    4.00000

read_vps: Pseudopotential includes a core correction:
read_vps: Pseudo-core for xc-correction

xc_check: Exchange-correlation functional:
xc_check: GGA Perdew, Burke & Ernzerhof 1996
V l=0 = -2*Zval/r beyond r=  1.5227
V l=1 = -2*Zval/r beyond r=  1.5227
V l=2 = -2*Zval/r beyond r=  1.5227
V l=3 = -2*Zval/r beyond r=  1.5038
All V_l potentials equal beyond r=  1.5227
This should be close to max(r_c) in ps generation
All pots = -2*Zval/r beyond r=  1.5227

VLOCAL1: 99.0% of the norm of Vloc inside     18.722 Ry
VLOCAL1: 99.9% of the norm of Vloc inside     42.668 Ry
atom: Maximum radius for 4*pi*r*r*local-pseudopot. charge    1.83678
atom: Maximum radius for r*vlocal+2*Zval:    1.58088
GHOST: No ghost state for L =  0
GHOST: No ghost state for L =  1
GHOST: No ghost state for L =  2
GHOST: No ghost state for L =  3

KBgen: Kleinman-Bylander projectors: 
   l= 0   rc=  1.704034   el= -1.009801   Ekb=  5.335044   kbcos=  0.316824
   l= 1   rc=  1.704034   el= -0.388707   Ekb= -3.785862   kbcos= -0.366464
   l= 2   rc=  1.791422   el=  0.001971   Ekb= -0.970471   kbcos= -0.009212
   l= 3   rc=  1.859892   el=  0.003065   Ekb= -0.399525   kbcos= -0.001223

KBgen: Total number of  Kleinman-Bylander projectors:   16
atom: -------------------------------------------------------------------------

atom: SANKEY-TYPE ORBITALS:
atom: Selected multiple-zeta basis: split     

SPLIT: Orbitals with angular momentum L= 0

SPLIT: Basis orbitals for state 2s

SPLIT: PAO cut-off radius determined from an
SPLIT: energy shift=  0.007350 Ry

   izeta = 1
                 lambda =    1.000000
                     rc =    4.632753
                 energy =   -1.002270
                kinetic =    0.855760
    potential(screened) =   -1.858031
       potential(ionic) =   -5.417575

   izeta = 2
                 rmatch =    3.431921
              splitnorm =    0.150000
                 energy =   -0.867111
                kinetic =    1.300804
    potential(screened) =   -2.167915
       potential(ionic) =   -5.962684

SPLIT: Orbitals with angular momentum L= 1

SPLIT: Basis orbitals for state 2p

SPLIT: PAO cut-off radius determined from an
SPLIT: energy shift=  0.007350 Ry

   izeta = 1
                 lambda =    1.000000
                     rc =    5.658549
                 energy =   -0.381140
                kinetic =    2.399701
    potential(screened) =   -2.780841
       potential(ionic) =   -6.206085

   izeta = 2
                 rmatch =    3.653288
              splitnorm =    0.150000
                 energy =   -0.249149
                kinetic =    3.542762
    potential(screened) =   -3.791911
       potential(ionic) =   -7.581078

POLgen: Perturbative polarization orbital with L=  2

POLgen: Polarization orbital for state 2p

   izeta = 1
                     rc =    5.658549
                 energy =    1.109913
                kinetic =    2.304789
    potential(screened) =   -1.194876
       potential(ionic) =   -4.013592
atom: Total number of Sankey-type orbitals: 13

atm_pop: Valence configuration (for local Pseudopot. screening):
 2s( 2.00)                                                            
 2p( 2.00)                                                            
Vna: chval, zval:    4.00000   4.00000

Vna:  Cut-off radius for the neutral-atom potential:   5.658549
comcore: Pseudo-core radius Rcore=  1.791422

atom: _________________________________________________________________________

<basis_specs>
===============================================================================
N                    Z=   7    Mass=  14.010        Charge= 0.17977+309
Lmxo=1 Lmxkb= 3    BasisType=split      Semic=F
L=0  Nsemic=0  Cnfigmx=2
          n=1  nzeta=2  polorb=0
            splnorm:   0.15000    
               vcte:    0.0000    
               rinn:    0.0000    
                rcs:    0.0000      0.0000    
            lambdas:    1.0000      1.0000    
L=1  Nsemic=0  Cnfigmx=2
          n=1  nzeta=2  polorb=1
            splnorm:   0.15000    
               vcte:    0.0000    
               rinn:    0.0000    
                rcs:    0.0000      0.0000    
            lambdas:    1.0000      1.0000    
-------------------------------------------------------------------------------
L=0  Nkbl=1  erefs: 0.17977+309
L=1  Nkbl=1  erefs: 0.17977+309
L=2  Nkbl=1  erefs: 0.17977+309
L=3  Nkbl=1  erefs: 0.17977+309
===============================================================================
</basis_specs>

atom: Called for N                     (Z =   7)

read_vps: Pseudopotential generation method:
read_vps: ATM3      Troullier-Martins                       
Total valence charge:    5.00000

read_vps: Pseudopotential includes a core correction:
read_vps: Pseudo-core for xc-correction

xc_check: Exchange-correlation functional:
xc_check: GGA Perdew, Burke & Ernzerhof 1996
V l=0 = -2*Zval/r beyond r=  1.4606
V l=1 = -2*Zval/r beyond r=  1.4606
V l=2 = -2*Zval/r beyond r=  1.4606
V l=3 = -2*Zval/r beyond r=  1.4606
All V_l potentials equal beyond r=  1.4606
This should be close to max(r_c) in ps generation
All pots = -2*Zval/r beyond r=  1.4606

VLOCAL1: 99.0% of the norm of Vloc inside     20.347 Ry
VLOCAL1: 99.9% of the norm of Vloc inside     46.372 Ry
atom: Maximum radius for 4*pi*r*r*local-pseudopot. charge    1.76189
atom: Maximum radius for r*vlocal+2*Zval:    1.53550
GHOST: No ghost state for L =  0
GHOST: No ghost state for L =  1
GHOST: No ghost state for L =  2
GHOST: No ghost state for L =  3

KBgen: Kleinman-Bylander projectors: 
   l= 0   rc=  1.634559   el= -1.363963   Ekb=  5.296955   kbcos=  0.335621
   l= 1   rc=  1.614250   el= -0.521451   Ekb= -5.259161   kbcos= -0.433408
   l= 2   rc=  1.718383   el=  0.001991   Ekb= -1.271464   kbcos= -0.007566
   l= 3   rc=  1.761893   el=  0.003093   Ekb= -0.494769   kbcos= -0.001015

KBgen: Total number of  Kleinman-Bylander projectors:   16
atom: -------------------------------------------------------------------------

atom: SANKEY-TYPE ORBITALS:
atom: Selected multiple-zeta basis: split     

SPLIT: Orbitals with angular momentum L= 0

SPLIT: Basis orbitals for state 2s

SPLIT: PAO cut-off radius determined from an
SPLIT: energy shift=  0.007350 Ry

   izeta = 1
                 lambda =    1.000000
                     rc =    4.071465
                 energy =   -1.356470
                kinetic =    1.176977
    potential(screened) =   -2.533447
       potential(ionic) =   -8.057990

   izeta = 2
                 rmatch =    2.905100
              splitnorm =    0.150000
                 energy =   -1.158343
                kinetic =    1.813009
    potential(screened) =   -2.971352
       potential(ionic) =   -8.901931

SPLIT: Orbitals with angular momentum L= 1

SPLIT: Basis orbitals for state 2p

SPLIT: PAO cut-off radius determined from an
SPLIT: energy shift=  0.007350 Ry

   izeta = 1
                 lambda =    1.000000
                     rc =    4.972977
                 energy =   -0.513884
                kinetic =    3.441732
    potential(screened) =   -3.955616
       potential(ionic) =   -9.287901

   izeta = 2
                 rmatch =    3.054066
              splitnorm =    0.150000
                 energy =   -0.318226
                kinetic =    5.125348
    potential(screened) =   -5.443573
       potential(ionic) =  -11.380999

POLgen: Perturbative polarization orbital with L=  2

POLgen: Polarization orbital for state 2p

   izeta = 1
                     rc =    4.972977
                 energy =    1.607437
                kinetic =    3.268125
    potential(screened) =   -1.660688
       potential(ionic) =   -5.973652
atom: Total number of Sankey-type orbitals: 13

atm_pop: Valence configuration (for local Pseudopot. screening):
 2s( 2.00)                                                            
 2p( 3.00)                                                            
Vna: chval, zval:    5.00000   5.00000

Vna:  Cut-off radius for the neutral-atom potential:   4.972977
comcore: Pseudo-core radius Rcore=  1.554824

atom: _________________________________________________________________________

prinput: Basis input ----------------------------------------------------------

PAO.BasisType split     

%block ChemicalSpeciesLabel
    1    6 C                       # Species index, atomic number, species label
    2    7 N                       # Species index, atomic number, species label
%endblock ChemicalSpeciesLabel

%block PAO.Basis                 # Define Basis set
C                     2                    # Species label, number of l-shells
 n=2   0   2                         # n, l, Nzeta 
   4.633      3.432   
   1.000      1.000   
 n=2   1   2 P   1                   # n, l, Nzeta, Polarization, NzetaPol
   5.659      3.653   
   1.000      1.000   
N                     2                    # Species label, number of l-shells
 n=2   0   2                         # n, l, Nzeta 
   4.071      2.905   
   1.000      1.000   
 n=2   1   2 P   1                   # n, l, Nzeta, Polarization, NzetaPol
   4.973      3.054   
   1.000      1.000   
%endblock PAO.Basis

prinput: ----------------------------------------------------------------------

coor:   Atomic-coordinates input format  =     Cartesian coordinates
coor:                                          (in Angstroms)

siesta: Atomic coordinates (Bohr) and species
siesta:      2.23554   1.32097   0.00000  1        1
siesta:     32.50328  21.48508   0.00000  1        2
siesta:     34.83141  22.82873   0.00000  1        3
siesta:     34.83116  17.45226   0.00000  1        4
siesta:     37.15930  18.79590   0.00000  1        5
siesta:     32.50291  13.41944   0.00000  1        6
siesta:     34.83104  14.76308   0.00000  1        7
siesta:     30.17465   9.38661   0.00000  1        8
siesta:     32.50278  10.73026   0.00000  1        9
siesta:     27.84639   5.35379   0.00000  1       10
siesta:     30.17453   6.69743   0.00000  1       11
siesta:     27.84714  21.48508   0.00000  1       12
siesta:     30.17527  22.82873   0.00000  1       13
siesta:      6.89168   1.32097   0.00000  1       14
siesta:      9.21981   2.66461   0.00000  1       15
siesta:     11.54782   1.32097   0.00000  1       16
siesta:     13.87595   2.66461   0.00000  1       17
siesta:     16.20396   1.32097   0.00000  1       18
siesta:     18.53210   2.66461   0.00000  1       19
siesta:     23.19013   2.66461   0.00000  1       20
siesta:     25.51813   1.32097   0.00000  1       21
siesta:     27.84627   2.66461   0.00000  1       22
siesta:      4.56380   5.35379   0.00000  1       23
siesta:      6.89193   6.69743   0.00000  1       24
siesta:      9.21994   5.35379   0.00000  1       25
siesta:     11.54807   6.69743   0.00000  1       26
siesta:     13.87608   5.35379   0.00000  1       27
siesta:     16.20421   6.69743   0.00000  1       28
siesta:     18.53411   5.35379   0.00000  1       29
siesta:     23.19025   5.35379   0.00000  1       30
siesta:     25.51838   6.69743   0.00000  1       31
siesta:      9.22019  10.73026   0.00000  1       32
siesta:     11.54820   9.38661   0.00000  1       33
siesta:     13.87633  10.73026   0.00000  1       34
siesta:     18.53247  10.73026   0.00000  1       35
siesta:     20.86237   9.38661   0.00000  1       36
siesta:     23.19050  10.73026   0.00000  1       37
siesta:      9.22031  13.41944   0.00000  1       38
siesta:     11.54845  14.76308   0.00000  1       39
siesta:     13.87645  13.41944   0.00000  1       40
siesta:     16.20459  14.76308   0.00000  1       41
siesta:     18.53448  13.41944   0.00000  1       42
siesta:     20.86262  14.76308   0.00000  1       43
siesta:     13.87670  18.79590   0.00000  1       44
siesta:     16.20471  17.45226   0.00000  1       45
siesta:     18.53284  18.79590   0.00000  1       46
siesta:     13.87683  21.48508   0.00000  1       47
siesta:     16.20496  22.82873   0.00000  1       48
siesta:     18.53486  21.48508   0.00000  1       49
siesta:     20.86299  22.82873   0.00000  1       50
siesta:     27.84664  10.73026   0.00000  1       51
siesta:     23.19063  13.41944   0.00000  1       52
siesta:     25.51876  14.76308   0.00000  1       53
siesta:     23.19088  18.79590   0.00000  1       54
siesta:     27.84677  13.41944   0.00000  1       55
siesta:     30.17490  14.76308   0.00000  1       56
siesta:     25.51888  17.45226   0.00000  1       57
siesta:     27.84702  18.79590   0.00000  1       58
siesta:     23.19100  21.48508   0.00000  1       59
siesta:     25.51913  22.82873   0.00000  1       60
siesta:     32.50316  18.79590   0.00000  1       61
siesta:     37.16131  21.48508   0.00000  1       62
siesta:     39.48945  22.82873   0.00000  1       63
siesta:      4.56367   2.66461   0.00000  2       64
siesta:     20.86199   1.32097   0.00000  2       65
siesta:     20.86224   6.69743   0.00000  2       66
siesta:      6.89205   9.38661   0.00000  2       67
siesta:     16.20434   9.38661   0.00000  2       68
siesta:     11.54857  17.45226   0.00000  2       69
siesta:     25.51851   9.38661   0.00000  2       70
siesta:     20.86274  17.45226   0.00000  2       71
siesta:     30.17503  17.45226   0.00000  2       72

siesta: System type = slab      

initatomlists: Number of atoms, orbitals, and projectors:     72   936  1152

siesta: ******************** Simulation parameters ****************************
siesta:
siesta: The following are some of the parameters of the simulation.
siesta: A complete list of the parameters used, including default values,
siesta: can be found in file out.fdf
siesta:
redata: Non-Collinear-spin run           =     F
redata: SpinPolarized (Up/Down) run      =     F
redata: Number of spin components        =     1
redata: Long output                      =     F
redata: Number of Atomic Species         =        2
redata: Charge density info will appear in .RHO file
redata: Write Mulliken Pop.              =     NO
redata: Mesh Cutoff                      =   200.0000  Ry
redata: Net charge of the system         =     0.0000 |e|
redata: Max. number of SCF Iter          =      500
redata: SCF convergence failure will abort job
redata: Performing Pulay mixing using    =    10 iterations
redata: Mix DM in first SCF step ?       =     F
redata: Write Pulay info on disk?        =     F
redata: Discard 1st Pulay DM after  kick =     F
redata: New DM Mixing Weight             =     0.0500
redata: New DM Occupancy tolerance       = 0.000000000001
redata: No kicks to SCF
redata: DM Mixing Weight for Kicks       =     0.5000
redata: DM Tolerance for SCF             =     0.000100
redata: Require Energy convergence for SCF =     F
redata: DM Energy tolerance for SCF      =     0.000100 eV
redata: Require Harris convergence for SCF =     F
redata: DM Harris energy tolerance for SCF =     0.000100 eV
redata: Using Saved Data (generic)   =     F
redata: Use continuation files for DM    =     T
redata: Neglect nonoverlap interactions  =     F
redata: Method of Calculation            =     Diagonalization
redata: Divide and Conquer               =     T
redata: Electronic Temperature           =     0.0019  Ry
redata: Fix the spin of the system       =     F
redata: Dynamics option                  =     Verlet MD run
redata: Initial MD time step             =        1
redata:   Final MD time step             =        1
redata: Length of MD time step           =     1.0000  fs
redata: Initial Temperature of MD run    =     0.0000  K
redata: Perform a MD quench              =     F
redata: ***********************************************************************
Total number of electrons:   297.000000
Total ionic charge:   297.000000

* ProcessorY, Blocksize:    2  24

k-point displ. along   1 input, could be:     0.00    0.50
k-point displ. along   2 input, could be:     0.00    0.50
 Kpoints in:          364 . Kpoints trimmed:          352

siesta: k-grid: Number of k-points =   352
siesta: k-grid: Cutoff (effective) =     5.000 Ang
siesta: k-grid: Supercell and displacements
siesta: k-grid:   26   0   0      0.000
siesta: k-grid:    0  26   0      0.000
siesta: k-grid:    0   0   1      0.000
Naive supercell factors:     2    2    2

superc: Internal auxiliary supercell:     2 x     2 x     2  =       8
superc: Number of atoms, orbitals, and projectors:    576   7488   9216

* Maximum dynamic memory allocated =     6 MB

siesta:                 ==============================
                            Begin MD step =      1
                        ==============================

superc: Internal auxiliary supercell:     2 x     2 x     2  =       8
superc: Number of atoms, orbitals, and projectors:    576   7488   9216

outcell: Unit cell vectors (Ang):
       14.785000    0.000000    0.000000
        7.393000   12.805052    0.000000
        0.000000    0.000000   10.000000

outcell: Cell vector modules (Ang)   :   14.785000   14.786000   10.000000
outcell: Cell angles (23,13,12) (deg):     90.0000     90.0000     60.0000
outcell: Cell volume (Ang**3)        :   1893.2269
New_DM. Step:     1
Initializing Density Matrix...

iodm: Reading Density Matrix from files
 Read DM has different structure. Fixing...

InitMesh: MESH =   120 x   120 x    90 =     1296000
InitMesh: Mesh cutoff (required, used) =   200.000   223.865 Ry

* Maximum dynamic memory allocated =   187 MB

stepf: Fermi-Dirac step function

siesta: Program's energy decomposition (eV):
siesta: Ebs     =     -4348.526468
siesta: Eions   =     19849.732669
siesta: Ena     =      4064.204845
siesta: Ekin    =      8467.621092
siesta: Enl     =      -984.202068
siesta: DEna    =      -307.216412
siesta: DUscf   =       170.209013
siesta: DUext   =         0.000000
siesta: Exc     =     -4275.916460
siesta: eta*DQ  =         0.000000
siesta: Emadel  =         0.000000
siesta: Emeta   =         0.000000
siesta: Emolmec =         0.000000
siesta: Ekinion =         0.000000
siesta: Eharris =    -13181.599362
siesta: Etot    =    -12715.032660
siesta: FreeEng =    -12715.032660

siesta: iscf   Eharris(eV)      E_KS(eV)   FreeEng(eV)   dDmax  Ef(eV)
siesta:    1   -13181.5994   -12715.0327   -12715.0327  2.6520 -3.0034
timer: Routine,Calls,Time,% = IterSCF        1    7972.554  99.85
elaps: Routine,Calls,Wall,% = IterSCF        1     998.209  99.85
siesta:    2   -29596.5843    -9623.1989    -9623.2410133.2897-25.6794
siesta:    3   -12937.2318   -12729.0854   -12729.1020  0.7449 -2.7364
siesta:    4   -12880.4488   -12737.3381   -12737.3689  0.6616 -2.8309
siesta:    5   -12779.8122   -12748.4972   -12748.5276  0.6037 -2.8956
siesta:    6   -12751.4628   -12747.1217   -12747.1538  0.5123 -2.9666
siesta:    7   -12743.3014   -12742.4574   -12742.4882  0.4242 -3.0587
siesta:    8   -12742.3627   -12740.0376   -12740.0713  0.3202 -3.2227
siesta:    9   -12744.1776   -12736.9944   -12737.0252  0.1597 -3.4904
siesta:   10   -12741.7275   -12737.3533   -12737.3787  0.0726 -3.5845
siesta:   11   -12741.2174   -12737.1575   -12737.1932  0.0785 -3.5766
siesta:   12   -12740.5367   -12737.2905   -12737.3267  0.0558 -3.5029
siesta:   13   -12740.5005   -12737.6133   -12737.6480  0.0428 -3.4958
siesta:   14   -12740.4641   -12738.1226   -12738.1581  0.0254 -3.4712
siesta:   15   -12740.4175   -12738.8304   -12738.8667  0.0156 -3.4336
siesta:   16   -12740.4081   -12739.0943   -12739.1308  0.0130 -3.4271
siesta:   17   -12740.3947   -12739.5435   -12739.5800  0.0084 -3.4185
siesta:   18   -12740.3949   -12739.6756   -12739.7118  0.0063 -3.4179
siesta:   19   -12740.3940   -12739.8873   -12739.9235  0.0042 -3.4208
siesta:   20   -12740.3936   -12740.1244   -12740.1606  0.0022 -3.4217
siesta:   21   -12740.3934   -12740.2376   -12740.2739  0.0009 -3.4230
siesta:   22   -12740.3933   -12740.2701   -12740.3064  0.0008 -3.4233
siesta:   23   -12740.3931   -12740.3244   -12740.3607  0.0005 -3.4235
siesta:   24   -12740.3931   -12740.3358   -12740.3721  0.0006 -3.4234
siesta:   25   -12740.3931   -12740.3500   -12740.3863  0.0005 -3.4233
siesta:   26   -12740.3931   -12740.3589   -12740.3952  0.0003 -3.4233
siesta:   27   -12740.3931   -12740.3713   -12740.4076  0.0001 -3.4233
siesta:   28   -12740.3931   -12740.3745   -12740.4108  0.0001 -3.4233
siesta:   29   -12740.3931   -12740.3828   -12740.4191  0.0001 -3.4233

siesta: E_KS(eV) =           -12740.3886

siesta: E_KS - E_eggbox =    -12740.3886

siesta: Atomic forces (eV/Ang):
----------------------------------------
   Tot    0.243572   -0.261097    0.000000
----------------------------------------
   Max    1.157184
   Res    0.297071    sqrt( Sum f_i^2 / 3N )
----------------------------------------
   Max    1.157184    constrained

Stress-tensor-Voigt (kbar):        0.08        1.13        0.14       -0.63        0.00        0.00
(Free)E + p*V (eV/cell)   -12740.9595
Target enthalpy (eV/cell)   -12740.4249

siesta: Stress tensor (static) (eV/Ang**3):
         0.000049   -0.000394    0.000000
        -0.000394    0.000708    0.000000
         0.000000    0.000000    0.000090

siesta: Pressure (static):         -0.45236195  kBar

siesta: Stress tensor (total) (eV/Ang**3):
         0.000049   -0.000394    0.000000
        -0.000394    0.000708    0.000000
         0.000000    0.000000    0.000090

siesta: Pressure (total):         -0.45236195  kBar

siesta: Temp_ion =       0.000 K

* Maximum dynamic memory allocated =   203 MB

siesta: Program's energy decomposition (eV):
siesta: Ebs     =     -4184.618816
siesta: Eions   =     19849.732669
siesta: Ena     =      4064.204845
siesta: Ekin    =      8580.253511
siesta: Enl     =     -1059.300556
siesta: DEna    =      -247.615209
siesta: DUscf   =        22.420910
siesta: DUext   =         0.000000
siesta: Exc     =     -4250.619478
siesta: eta*DQ  =         0.000000
siesta: Emadel  =         0.000000
siesta: Emeta   =         0.000000
siesta: Emolmec =         0.000000
siesta: Ekinion =         0.000000
siesta: Eharris =    -12740.393102
siesta: Etot    =    -12740.388645
siesta: FreeEng =    -12740.424930

siesta: Final energy (eV):
siesta:  Band Struct. =   -4184.618816
siesta:       Kinetic =    8580.253511
siesta:       Hartree =   24802.320382
siesta:    Ext. field =       0.000000
siesta:   Exch.-corr. =   -4250.619478
siesta:  Ion-electron =  -57580.370756
siesta:       Ion-ion =   15708.027696
siesta:       Ekinion =       0.000000
siesta:         Total =  -12740.388645

siesta: Atomic forces (eV/Ang):
siesta:      1    0.283078    0.254727    0.000000
siesta:      2    0.148086   -0.172479    0.000000
siesta:      3    0.033707    0.323585    0.000000
siesta:      4   -0.006934   -0.490354    0.000000
siesta:      5    0.351162    0.122552    0.000000
siesta:      6    0.214824    0.193550    0.000000
siesta:      7    0.060768    0.083022    0.000000
siesta:      8    0.123340    0.367290    0.000000
siesta:      9    0.145051   -0.253868    0.000000
siesta:     10   -0.163560    0.774916    0.000000
siesta:     11    0.138695   -1.157184    0.000000
siesta:     12    0.631834   -0.249095    0.000000
siesta:     13   -0.464526    0.412476    0.000000
siesta:     14   -0.434093   -0.332453    0.000000
siesta:     15   -0.542838    0.011155    0.000000
siesta:     16   -0.056744   -0.130954    0.000000
siesta:     17    0.151138    0.145378    0.000000
siesta:     18    0.328082   -0.409799    0.000000
siesta:     19    0.661114    0.380191    0.000000
siesta:     20   -0.718023    0.380384    0.000000
siesta:     21   -0.260467   -0.634996    0.000000
siesta:     22    0.481097   -0.011018    0.000000
siesta:     23   -0.064831    0.104435    0.000000
siesta:     24   -0.314033    0.197075    0.000000
siesta:     25    0.502032    0.773696    0.000000
siesta:     26   -0.255695   -0.846651    0.000000
siesta:     27   -0.027367    0.394492    0.000000
siesta:     28    0.559763    0.455056    0.000000
siesta:     29    0.442375    0.171956    0.000000
siesta:     30   -0.593363    0.120746    0.000000
siesta:     31   -0.236555    0.320870    0.000000
siesta:     32   -0.159508   -0.423010    0.000000
siesta:     33    0.080815    0.457755    0.000000
siesta:     34    0.071340   -0.448821    0.000000
siesta:     35    0.047288   -0.734439    0.000000
siesta:     36   -0.026467   -0.616257    0.000000
siesta:     37   -0.049036   -0.766615    0.000000
siesta:     38   -0.254651    0.290498    0.000000
siesta:     39    0.016354    0.083113    0.000000
siesta:     40    0.150005    0.290275    0.000000
siesta:     41    0.103467    0.026108    0.000000
siesta:     42   -0.100109    0.280583    0.000000
siesta:     43   -0.042203    0.289103    0.000000
siesta:     44   -0.202701   -0.196266    0.000000
siesta:     45   -0.309660   -0.442955    0.000000
siesta:     46    0.659943    0.527364    0.000000
siesta:     47   -0.826817   -0.099144    0.000000
siesta:     48    0.486241    0.339546    0.000000
siesta:     49    0.169650   -1.041060    0.000000
siesta:     50   -0.228038    1.074796    0.000000
siesta:     51   -0.060240   -0.400833    0.000000
siesta:     52    0.129803    0.311857    0.000000
siesta:     53   -0.127986   -0.112317    0.000000
siesta:     54   -0.549814    0.023076    0.000000
siesta:     55   -0.145421    0.189736    0.000000
siesta:     56    0.030823    0.176466    0.000000
siesta:     57    0.090187   -0.229385    0.000000
siesta:     58    0.302308   -0.109273    0.000000
siesta:     59   -0.125985   -0.355199    0.000000
siesta:     60   -0.092882   -0.218943    0.000000
siesta:     61   -0.294778    0.087180    0.000000
siesta:     62   -0.264338   -0.262806    0.000000
siesta:     63    0.533511    0.441341    0.000000
siesta:     64    0.079459    0.037353    0.000000
siesta:     65    0.065286   -0.332403    0.000000
siesta:     66    0.060887    0.122199    0.000000
siesta:     67   -0.064435    0.057662    0.000000
siesta:     68   -0.121014    0.180835    0.000000
siesta:     69   -0.088802    0.009270    0.000000
siesta:     70    0.080240    0.214769    0.000000
siesta:     71    0.054138   -0.220144    0.000000
siesta:     72    0.049595   -0.060814    0.000000
siesta: ----------------------------------------
siesta:    Tot    0.243572   -0.261097    0.000000

siesta: Stress tensor (static) (eV/Ang**3):
siesta:     0.000049   -0.000394    0.000000
siesta:    -0.000394    0.000708    0.000000
siesta:     0.000000    0.000000    0.000090

siesta: Cell volume =       1893.226895 Ang**3

siesta: Pressure (static):
siesta:                Solid            Molecule  Units
siesta:          -0.00000308         -0.00003074  Ry/Bohr**3
siesta:          -0.00028234         -0.00282246  eV/Ang**3
siesta:          -0.45236195         -4.52212635  kBar
(Free)E+ p_basis*V_orbitals  =      -12710.973984
(Free)Eharris+ p_basis*V_orbitals  =      -12710.984253

siesta: Electric dipole (a.u.)  =    0.000000    0.000000    0.000000
siesta: Electric dipole (Debye) =    0.000000    0.000000    0.000000

* Maximum dynamic memory allocated : Node    0 =   203 MB
* Maximum dynamic memory allocated : Node    1 =    74 MB
* Maximum dynamic memory allocated : Node    2 =    76 MB
* Maximum dynamic memory allocated : Node    3 =   192 MB
* Maximum dynamic memory allocated : Node    4 =   203 MB
* Maximum dynamic memory allocated : Node    5 =    74 MB
* Maximum dynamic memory allocated : Node    6 =    76 MB
* Maximum dynamic memory allocated : Node    7 =   187 MB

* Maximum memory occured during matrixMtoO                    

timer: CPU execution times:
timer:  Routine       Calls   Time/call    Tot.time        %
timer:  siesta            1  228934.033  228934.033   100.00
timer:  Setup             1       3.126       3.126     0.00
timer:  bands             1       0.011       0.011     0.00
timer:  writewave         1       0.017       0.017     0.00
timer:  KSV_init          1       0.005       0.005     0.00
timer:  IterMD            1  228922.738  228922.738   100.00
timer:  hsparse           1       0.267       0.267     0.00
timer:  overlap           1       6.345       6.345     0.00
timer:  IterSCF          29    7887.937  228750.173    99.92
timer:  kinefsm           2       3.263       6.525     0.00
timer:  nlefsm            2      18.774      37.547     0.02
timer:  DHSCF            30      90.292    2708.761     1.18
timer:  DHSCF1            1       0.799       0.799     0.00
timer:  DHSCF2            1      35.048      35.048     0.02
timer:  REORD           242       0.014       3.329     0.00
timer:  POISON           31       3.753     116.346     0.05
timer:  DHSCF3           30      87.971    2639.122     1.15
timer:  rhoofd           30      16.358     490.745     0.21
timer:  cellXC           30       3.545     106.347     0.05
timer:  vmat             30      44.411    1332.337     0.58
timer:  MolMec            2       0.000       0.000     0.00
timer:  diagon           29    7796.329  226093.555    98.76
timer:  c-eigval      10208       7.264   74148.850    32.39
timer:  c-buildHS     10208       0.210    2144.912     0.94
timer:  cdiag         20416       7.435  151802.821    66.31
timer:  cdiag1        20416       0.461    9416.990     4.11
timer:  cdiag2        20416       1.987   40560.262    17.72
timer:  cdiag3        20416       4.192   85588.137    37.39
timer:  cdiag4        20416       0.249    5077.216     2.22
timer:  c-eigvec      10208       7.906   80704.270    35.25
timer:  c-buildD      10208       6.967   71118.881    31.07
timer:  DHSCF4            1      31.074      31.074     0.01
timer:  dfscf             1      29.232      29.232     0.01
timer:  overfsm           1       0.373       0.373     0.00
timer:  optical           1       7.152       7.152     0.00
  

elaps: ELAPSED times:
elaps:  Routine       Calls   Time/call    Tot.time        %
elaps:  siesta            1   28660.905   28660.905   100.00
elaps:  Setup             1       0.389       0.389     0.00
elaps:  bands             1       0.001       0.001     0.00
elaps:  writewave         1       0.002       0.002     0.00
elaps:  KSV_init          1       0.000       0.000     0.00
elaps:  IterMD            1   28659.493   28659.493   100.00
elaps:  hsparse           1       0.032       0.032     0.00
elaps:  overlap           1       0.523       0.523     0.00
elaps:  IterSCF          29     987.514   28637.904    99.92
elaps:  kinefsm           2       0.274       0.548     0.00
elaps:  nlefsm            2       2.485       4.970     0.02
elaps:  DHSCF            30      11.404     342.111     1.19
elaps:  DHSCF1            1       0.106       0.106     0.00
elaps:  DHSCF2            1       4.382       4.382     0.02
elaps:  REORD           242       0.002       0.436     0.00
elaps:  POISON           31       0.471      14.608     0.05
elaps:  DHSCF3           30      11.006     330.189     1.15
elaps:  rhoofd           30       3.550     106.488     0.37
elaps:  cellXC           30       0.442      13.272     0.05
elaps:  vmat             30       5.556     166.691     0.58
elaps:  MolMec            2       0.000       0.000     0.00
elaps:  diagon           29     976.083   28306.406    98.76
elaps:  c-eigval      10208       0.909    9278.583    32.37
elaps:  c-buildHS     10208       0.028     283.228     0.99
elaps:  cdiag         20416       0.914   18663.021    65.12
elaps:  cdiag1        20416       0.057    1170.905     4.09
elaps:  cdiag2        20416       0.249    5075.310    17.71
elaps:  cdiag3        20416       0.525   10726.230    37.42
elaps:  cdiag4        20416       0.033     677.218     2.36
elaps:  c-eigvec      10208       0.960    9797.906    34.19
elaps:  c-buildD      10208       0.902    9212.492    32.14
elaps:  DHSCF4            1       7.046       7.046     0.02
elaps:  dfscf             1       6.666       6.666     0.02
elaps:  overfsm           1       0.049       0.049     0.00
elaps:  optical           1       0.000       0.000     0.00
  
>> End of run:  30-NOV-2015  22:54:54
