Siesta Version:                                        siesta-3.2-pl-3
Architecture  : x86_64-unknown-linux-gnu--unknown
Compiler flags: mpiifort -g -O2 -fPIC -xSSE4.1 -fp-model source -shared-intel 
PARALLEL version

* Running on    8 nodes in parallel
>> Start of run:  28-NOV-2015  19:13:13

                           ***********************       
                           *  WELCOME TO SIESTA  *       
                           ***********************       

reinit: Reading from standard input
************************** Dump of input data file ****************************
#(1) General system descriptors
SystemName            GRP_doping    # Descriptive name of the system
SystemLabel           GRP_doping    # Short name for naming files
%include STRUCT.fdf
%include KPT.fdf
%include BASIS.fdf
#%include TS.fdf # for transiesta calculation
#(4) DFT, Grid, SCF
XC.functional         GGA           # LDA or GGA (default = LDA)
XC.authors            PBE           # CA (Ceperley-Aldr) = PZ
                                    #    (Perdew-Zunger) - LDA - Default
                                    # PW92 (Perdew-Wang-92) - LDA
                                    # PBE (Perdew-Burke-Ernzerhof) - GGA
MeshCutoff            200.000000    Ry      # Default: 50.0 Ry ~ 0.444 Bohr
                                    #         100.0 Ry ~ 0.314 Bohr
MaxSCFIterations      500           # Default: 50
DM.MixingWeight       0.05          # Default: 0.25
DM.NumberPulay        10            # Default: 0
DM.PulayOnFile        F             # SystemLabel.P1, SystemLabel.P2
DM.Tolerance          1.d-4         # Default: 1.d-4
DM.UseSaveDM          .true.        # because of the bug
SCFMustConverge       .true.
NeglNonOverlapInt     F             # Default: F
#(5) Eigenvalue problem: order-N or diagonalization
SolutionMethod        Diagon        # or Transiesta
ElectronicTemperature 300.0 K       # Default: 300.0 K
#(6) Molecular dynamics and relaxations
#MD.TypeOfRun          CG            # Type of dynamics:
#MD.VariableCell       F
#MD.NumCGsteps         0           # 0 for single-point / 100 for gopt
#MD.MaxCGDispl         0.2 Bohr      # Default: 0.2 Bohr
#MD.MaxForceTol        0.02 eV/Ang   # Default: 0.04 eV/Ang
#MD.MaxStressTol       1.0 GPa       # Default: 1.0 GPa
# Geometry Constraints
#%block GeometryConstraints
#	position from 1 to 44
#%endblock GeometryConstraints
************************** End of input data file *****************************

reinit: -----------------------------------------------------------------------
reinit: System Name: GRP_doping
reinit: -----------------------------------------------------------------------
reinit: System Label: GRP_doping                                                  
reinit: -----------------------------------------------------------------------

initatom: Reading input for the pseudopotentials and atomic orbitals ----------
 Species number:            1  Label: N Atomic number:           7
 Species number:            2  Label: C Atomic number:           6
Ground state valence configuration:   2s02  2p03
Reading pseudopotential information in formatted form from N.psf

Valence configuration for pseudopotential generation:
2s( 2.00) rc: 1.48
2p( 3.00) rc: 1.48
3d( 0.00) rc: 1.48
4f( 0.00) rc: 1.48
Ground state valence configuration:   2s02  2p02
Reading pseudopotential information in formatted form from C.psf

Valence configuration for pseudopotential generation:
2s( 2.00) rc: 1.54
2p( 2.00) rc: 1.54
3d( 0.00) rc: 1.54
4f( 0.00) rc: 1.54
For N, standard SIESTA heuristics set lmxkb to 3
 (one more than the basis l, including polarization orbitals).
Use PS.lmax or PS.KBprojectors blocks to override.
For C, standard SIESTA heuristics set lmxkb to 3
 (one more than the basis l, including polarization orbitals).
Use PS.lmax or PS.KBprojectors blocks to override.

<basis_specs>
===============================================================================
N                    Z=   7    Mass=  14.010        Charge= 0.17977+309
Lmxo=1 Lmxkb= 3    BasisType=split      Semic=F
L=0  Nsemic=0  Cnfigmx=2
          n=1  nzeta=2  polorb=0
            splnorm:   0.15000    
               vcte:    0.0000    
               rinn:    0.0000    
                rcs:    0.0000      0.0000    
            lambdas:    1.0000      1.0000    
L=1  Nsemic=0  Cnfigmx=2
          n=1  nzeta=2  polorb=1
            splnorm:   0.15000    
               vcte:    0.0000    
               rinn:    0.0000    
                rcs:    0.0000      0.0000    
            lambdas:    1.0000      1.0000    
-------------------------------------------------------------------------------
L=0  Nkbl=1  erefs: 0.17977+309
L=1  Nkbl=1  erefs: 0.17977+309
L=2  Nkbl=1  erefs: 0.17977+309
L=3  Nkbl=1  erefs: 0.17977+309
===============================================================================
</basis_specs>

atom: Called for N                     (Z =   7)

read_vps: Pseudopotential generation method:
read_vps: ATM3      Troullier-Martins                       
Total valence charge:    5.00000

read_vps: Pseudopotential includes a core correction:
read_vps: Pseudo-core for xc-correction

xc_check: Exchange-correlation functional:
xc_check: GGA Perdew, Burke & Ernzerhof 1996
V l=0 = -2*Zval/r beyond r=  1.4606
V l=1 = -2*Zval/r beyond r=  1.4606
V l=2 = -2*Zval/r beyond r=  1.4606
V l=3 = -2*Zval/r beyond r=  1.4606
All V_l potentials equal beyond r=  1.4606
This should be close to max(r_c) in ps generation
All pots = -2*Zval/r beyond r=  1.4606

VLOCAL1: 99.0% of the norm of Vloc inside     20.347 Ry
VLOCAL1: 99.9% of the norm of Vloc inside     46.372 Ry
atom: Maximum radius for 4*pi*r*r*local-pseudopot. charge    1.76189
atom: Maximum radius for r*vlocal+2*Zval:    1.53550
GHOST: No ghost state for L =  0
GHOST: No ghost state for L =  1
GHOST: No ghost state for L =  2
GHOST: No ghost state for L =  3

KBgen: Kleinman-Bylander projectors: 
   l= 0   rc=  1.634559   el= -1.363963   Ekb=  5.296955   kbcos=  0.335621
   l= 1   rc=  1.614250   el= -0.521451   Ekb= -5.259161   kbcos= -0.433408
   l= 2   rc=  1.718383   el=  0.001991   Ekb= -1.271464   kbcos= -0.007566
   l= 3   rc=  1.761893   el=  0.003093   Ekb= -0.494769   kbcos= -0.001015

KBgen: Total number of  Kleinman-Bylander projectors:   16
atom: -------------------------------------------------------------------------

atom: SANKEY-TYPE ORBITALS:
atom: Selected multiple-zeta basis: split     

SPLIT: Orbitals with angular momentum L= 0

SPLIT: Basis orbitals for state 2s

SPLIT: PAO cut-off radius determined from an
SPLIT: energy shift=  0.007350 Ry

   izeta = 1
                 lambda =    1.000000
                     rc =    4.071465
                 energy =   -1.356470
                kinetic =    1.176977
    potential(screened) =   -2.533447
       potential(ionic) =   -8.057990

   izeta = 2
                 rmatch =    2.905100
              splitnorm =    0.150000
                 energy =   -1.158343
                kinetic =    1.813009
    potential(screened) =   -2.971352
       potential(ionic) =   -8.901931

SPLIT: Orbitals with angular momentum L= 1

SPLIT: Basis orbitals for state 2p

SPLIT: PAO cut-off radius determined from an
SPLIT: energy shift=  0.007350 Ry

   izeta = 1
                 lambda =    1.000000
                     rc =    4.972977
                 energy =   -0.513884
                kinetic =    3.441732
    potential(screened) =   -3.955616
       potential(ionic) =   -9.287901

   izeta = 2
                 rmatch =    3.054066
              splitnorm =    0.150000
                 energy =   -0.318226
                kinetic =    5.125348
    potential(screened) =   -5.443573
       potential(ionic) =  -11.380999

POLgen: Perturbative polarization orbital with L=  2

POLgen: Polarization orbital for state 2p

   izeta = 1
                     rc =    4.972977
                 energy =    1.607437
                kinetic =    3.268125
    potential(screened) =   -1.660688
       potential(ionic) =   -5.973652
atom: Total number of Sankey-type orbitals: 13

atm_pop: Valence configuration (for local Pseudopot. screening):
 2s( 2.00)                                                            
 2p( 3.00)                                                            
Vna: chval, zval:    5.00000   5.00000

Vna:  Cut-off radius for the neutral-atom potential:   4.972977
comcore: Pseudo-core radius Rcore=  1.554824

atom: _________________________________________________________________________

<basis_specs>
===============================================================================
C                    Z=   6    Mass=  12.010        Charge= 0.17977+309
Lmxo=1 Lmxkb= 3    BasisType=split      Semic=F
L=0  Nsemic=0  Cnfigmx=2
          n=1  nzeta=2  polorb=0
            splnorm:   0.15000    
               vcte:    0.0000    
               rinn:    0.0000    
                rcs:    0.0000      0.0000    
            lambdas:    1.0000      1.0000    
L=1  Nsemic=0  Cnfigmx=2
          n=1  nzeta=2  polorb=1
            splnorm:   0.15000    
               vcte:    0.0000    
               rinn:    0.0000    
                rcs:    0.0000      0.0000    
            lambdas:    1.0000      1.0000    
-------------------------------------------------------------------------------
L=0  Nkbl=1  erefs: 0.17977+309
L=1  Nkbl=1  erefs: 0.17977+309
L=2  Nkbl=1  erefs: 0.17977+309
L=3  Nkbl=1  erefs: 0.17977+309
===============================================================================
</basis_specs>

atom: Called for C                     (Z =   6)

read_vps: Pseudopotential generation method:
read_vps: ATM3      Troullier-Martins                       
Total valence charge:    4.00000

read_vps: Pseudopotential includes a core correction:
read_vps: Pseudo-core for xc-correction

xc_check: Exchange-correlation functional:
xc_check: GGA Perdew, Burke & Ernzerhof 1996
V l=0 = -2*Zval/r beyond r=  1.5227
V l=1 = -2*Zval/r beyond r=  1.5227
V l=2 = -2*Zval/r beyond r=  1.5227
V l=3 = -2*Zval/r beyond r=  1.5038
All V_l potentials equal beyond r=  1.5227
This should be close to max(r_c) in ps generation
All pots = -2*Zval/r beyond r=  1.5227

VLOCAL1: 99.0% of the norm of Vloc inside     18.722 Ry
VLOCAL1: 99.9% of the norm of Vloc inside     42.668 Ry
atom: Maximum radius for 4*pi*r*r*local-pseudopot. charge    1.83678
atom: Maximum radius for r*vlocal+2*Zval:    1.58088
GHOST: No ghost state for L =  0
GHOST: No ghost state for L =  1
GHOST: No ghost state for L =  2
GHOST: No ghost state for L =  3

KBgen: Kleinman-Bylander projectors: 
   l= 0   rc=  1.704034   el= -1.009801   Ekb=  5.335044   kbcos=  0.316824
   l= 1   rc=  1.704034   el= -0.388707   Ekb= -3.785862   kbcos= -0.366464
   l= 2   rc=  1.791422   el=  0.001971   Ekb= -0.970471   kbcos= -0.009212
   l= 3   rc=  1.859892   el=  0.003065   Ekb= -0.399525   kbcos= -0.001223

KBgen: Total number of  Kleinman-Bylander projectors:   16
atom: -------------------------------------------------------------------------

atom: SANKEY-TYPE ORBITALS:
atom: Selected multiple-zeta basis: split     

SPLIT: Orbitals with angular momentum L= 0

SPLIT: Basis orbitals for state 2s

SPLIT: PAO cut-off radius determined from an
SPLIT: energy shift=  0.007350 Ry

   izeta = 1
                 lambda =    1.000000
                     rc =    4.632753
                 energy =   -1.002270
                kinetic =    0.855760
    potential(screened) =   -1.858031
       potential(ionic) =   -5.417575

   izeta = 2
                 rmatch =    3.431921
              splitnorm =    0.150000
                 energy =   -0.867111
                kinetic =    1.300804
    potential(screened) =   -2.167915
       potential(ionic) =   -5.962684

SPLIT: Orbitals with angular momentum L= 1

SPLIT: Basis orbitals for state 2p

SPLIT: PAO cut-off radius determined from an
SPLIT: energy shift=  0.007350 Ry

   izeta = 1
                 lambda =    1.000000
                     rc =    5.658549
                 energy =   -0.381140
                kinetic =    2.399701
    potential(screened) =   -2.780841
       potential(ionic) =   -6.206085

   izeta = 2
                 rmatch =    3.653288
              splitnorm =    0.150000
                 energy =   -0.249149
                kinetic =    3.542762
    potential(screened) =   -3.791911
       potential(ionic) =   -7.581078

POLgen: Perturbative polarization orbital with L=  2

POLgen: Polarization orbital for state 2p

   izeta = 1
                     rc =    5.658549
                 energy =    1.109913
                kinetic =    2.304789
    potential(screened) =   -1.194876
       potential(ionic) =   -4.013592
atom: Total number of Sankey-type orbitals: 13

atm_pop: Valence configuration (for local Pseudopot. screening):
 2s( 2.00)                                                            
 2p( 2.00)                                                            
Vna: chval, zval:    4.00000   4.00000

Vna:  Cut-off radius for the neutral-atom potential:   5.658549
comcore: Pseudo-core radius Rcore=  1.791422

atom: _________________________________________________________________________

prinput: Basis input ----------------------------------------------------------

PAO.BasisType split     

%block ChemicalSpeciesLabel
    1    7 N                       # Species index, atomic number, species label
    2    6 C                       # Species index, atomic number, species label
%endblock ChemicalSpeciesLabel

%block PAO.Basis                 # Define Basis set
N                     2                    # Species label, number of l-shells
 n=2   0   2                         # n, l, Nzeta 
   4.071      2.905   
   1.000      1.000   
 n=2   1   2 P   1                   # n, l, Nzeta, Polarization, NzetaPol
   4.973      3.054   
   1.000      1.000   
C                     2                    # Species label, number of l-shells
 n=2   0   2                         # n, l, Nzeta 
   4.633      3.432   
   1.000      1.000   
 n=2   1   2 P   1                   # n, l, Nzeta, Polarization, NzetaPol
   5.659      3.653   
   1.000      1.000   
%endblock PAO.Basis

prinput: ----------------------------------------------------------------------

coor:   Atomic-coordinates input format  =     Cartesian coordinates
coor:                                          (in Angstroms)

siesta: Atomic coordinates (Bohr) and species
siesta:      2.23554   1.32097   0.00000  1        1
siesta:     11.54782   1.32097   0.00000  1        2
siesta:     20.86199   1.32097   0.00000  1        3
siesta:      6.89205   9.38661   0.00000  1        4
siesta:     16.20434   9.38661   0.00000  1        5
siesta:     11.54857  17.45226   0.00000  1        6
siesta:     25.51851   9.38661   0.00000  1        7
siesta:     20.86274  17.45226   0.00000  1        8
siesta:     30.17503  17.45226   0.00000  1        9
siesta:      4.56367   2.66461   0.00000  2       10
siesta:     32.50328  21.48508   0.00000  2       11
siesta:     34.83141  22.82873   0.00000  2       12
siesta:     34.83116  17.45226   0.00000  2       13
siesta:     37.15930  18.79590   0.00000  2       14
siesta:     32.50291  13.41944   0.00000  2       15
siesta:     34.83104  14.76308   0.00000  2       16
siesta:     30.17465   9.38661   0.00000  2       17
siesta:     32.50278  10.73026   0.00000  2       18
siesta:     27.84639   5.35379   0.00000  2       19
siesta:     30.17453   6.69743   0.00000  2       20
siesta:     27.84714  21.48508   0.00000  2       21
siesta:     30.17527  22.82873   0.00000  2       22
siesta:      6.89168   1.32097   0.00000  2       23
siesta:      9.21981   2.66461   0.00000  2       24
siesta:     13.87595   2.66461   0.00000  2       25
siesta:     16.20396   1.32097   0.00000  2       26
siesta:     18.53210   2.66461   0.00000  2       27
siesta:     23.19013   2.66461   0.00000  2       28
siesta:     25.51813   1.32097   0.00000  2       29
siesta:     27.84627   2.66461   0.00000  2       30
siesta:      4.56380   5.35379   0.00000  2       31
siesta:      6.89193   6.69743   0.00000  2       32
siesta:      9.21994   5.35379   0.00000  2       33
siesta:     11.54807   6.69743   0.00000  2       34
siesta:     13.87608   5.35379   0.00000  2       35
siesta:     16.20421   6.69743   0.00000  2       36
siesta:     18.53411   5.35379   0.00000  2       37
siesta:     20.86224   6.69743   0.00000  2       38
siesta:     23.19025   5.35379   0.00000  2       39
siesta:     25.51838   6.69743   0.00000  2       40
siesta:      9.22019  10.73026   0.00000  2       41
siesta:     11.54820   9.38661   0.00000  2       42
siesta:     13.87633  10.73026   0.00000  2       43
siesta:     18.53247  10.73026   0.00000  2       44
siesta:     20.86237   9.38661   0.00000  2       45
siesta:     23.19050  10.73026   0.00000  2       46
siesta:      9.22031  13.41944   0.00000  2       47
siesta:     11.54845  14.76308   0.00000  2       48
siesta:     13.87645  13.41944   0.00000  2       49
siesta:     16.20459  14.76308   0.00000  2       50
siesta:     18.53448  13.41944   0.00000  2       51
siesta:     20.86262  14.76308   0.00000  2       52
siesta:     13.87670  18.79590   0.00000  2       53
siesta:     16.20471  17.45226   0.00000  2       54
siesta:     18.53284  18.79590   0.00000  2       55
siesta:     13.87683  21.48508   0.00000  2       56
siesta:     16.20496  22.82873   0.00000  2       57
siesta:     18.53486  21.48508   0.00000  2       58
siesta:     20.86299  22.82873   0.00000  2       59
siesta:     27.84664  10.73026   0.00000  2       60
siesta:     23.19063  13.41944   0.00000  2       61
siesta:     25.51876  14.76308   0.00000  2       62
siesta:     23.19088  18.79590   0.00000  2       63
siesta:     27.84677  13.41944   0.00000  2       64
siesta:     30.17490  14.76308   0.00000  2       65
siesta:     25.51888  17.45226   0.00000  2       66
siesta:     27.84702  18.79590   0.00000  2       67
siesta:     23.19100  21.48508   0.00000  2       68
siesta:     25.51913  22.82873   0.00000  2       69
siesta:     32.50316  18.79590   0.00000  2       70
siesta:     37.16131  21.48508   0.00000  2       71
siesta:     39.48945  22.82873   0.00000  2       72

siesta: System type = slab      

initatomlists: Number of atoms, orbitals, and projectors:     72   936  1152

siesta: ******************** Simulation parameters ****************************
siesta:
siesta: The following are some of the parameters of the simulation.
siesta: A complete list of the parameters used, including default values,
siesta: can be found in file out.fdf
siesta:
redata: Non-Collinear-spin run           =     F
redata: SpinPolarized (Up/Down) run      =     F
redata: Number of spin components        =     1
redata: Long output                      =     F
redata: Number of Atomic Species         =        2
redata: Charge density info will appear in .RHO file
redata: Write Mulliken Pop.              =     NO
redata: Mesh Cutoff                      =   200.0000  Ry
redata: Net charge of the system         =     0.0000 |e|
redata: Max. number of SCF Iter          =      500
redata: SCF convergence failure will abort job
redata: Performing Pulay mixing using    =    10 iterations
redata: Mix DM in first SCF step ?       =     F
redata: Write Pulay info on disk?        =     F
redata: Discard 1st Pulay DM after  kick =     F
redata: New DM Mixing Weight             =     0.0500
redata: New DM Occupancy tolerance       = 0.000000000001
redata: No kicks to SCF
redata: DM Mixing Weight for Kicks       =     0.5000
redata: DM Tolerance for SCF             =     0.000100
redata: Require Energy convergence for SCF =     F
redata: DM Energy tolerance for SCF      =     0.000100 eV
redata: Require Harris convergence for SCF =     F
redata: DM Harris energy tolerance for SCF =     0.000100 eV
redata: Using Saved Data (generic)   =     F
redata: Use continuation files for DM    =     T
redata: Neglect nonoverlap interactions  =     F
redata: Method of Calculation            =     Diagonalization
redata: Divide and Conquer               =     T
redata: Electronic Temperature           =     0.0019  Ry
redata: Fix the spin of the system       =     F
redata: Dynamics option                  =     Verlet MD run
redata: Initial MD time step             =        1
redata:   Final MD time step             =        1
redata: Length of MD time step           =     1.0000  fs
redata: Initial Temperature of MD run    =     0.0000  K
redata: Perform a MD quench              =     F
redata: ***********************************************************************
Total number of electrons:   297.000000
Total ionic charge:   297.000000

* ProcessorY, Blocksize:    2  24

k-point displ. along   1 input, could be:     0.00    0.50
k-point displ. along   2 input, could be:     0.00    0.50
 Kpoints in:          364 . Kpoints trimmed:          352

siesta: k-grid: Number of k-points =   352
siesta: k-grid: Cutoff (effective) =     5.000 Ang
siesta: k-grid: Supercell and displacements
siesta: k-grid:   26   0   0      0.000
siesta: k-grid:    0  26   0      0.000
siesta: k-grid:    0   0   1      0.000
Naive supercell factors:     2    2    2

superc: Internal auxiliary supercell:     2 x     2 x     2  =       8
superc: Number of atoms, orbitals, and projectors:    576   7488   9216

* Maximum dynamic memory allocated =     6 MB

siesta:                 ==============================
                            Begin MD step =      1
                        ==============================

superc: Internal auxiliary supercell:     2 x     2 x     2  =       8
superc: Number of atoms, orbitals, and projectors:    576   7488   9216

outcell: Unit cell vectors (Ang):
       14.785000    0.000000    0.000000
        7.393000   12.805052    0.000000
        0.000000    0.000000   10.000000

outcell: Cell vector modules (Ang)   :   14.785000   14.786000   10.000000
outcell: Cell angles (23,13,12) (deg):     90.0000     90.0000     60.0000
outcell: Cell volume (Ang**3)        :   1893.2269
New_DM. Step:     1
Initializing Density Matrix...

iodm: Reading Density Matrix from files
 Read DM has different structure. Fixing...

InitMesh: MESH =   120 x   120 x    90 =     1296000
InitMesh: Mesh cutoff (required, used) =   200.000   223.865 Ry

* Maximum dynamic memory allocated =   187 MB

stepf: Fermi-Dirac step function

siesta: Program's energy decomposition (eV):
siesta: Ebs     =     -4148.882608
siesta: Eions   =     19849.732669
siesta: Ena     =      4064.226464
siesta: Ekin    =      8474.682045
siesta: Enl     =      -988.276254
siesta: DEna    =      -309.683679
siesta: DUscf   =       150.760861
siesta: DUext   =         0.000000
siesta: Exc     =     -4276.155129
siesta: eta*DQ  =         0.000000
siesta: Emadel  =         0.000000
siesta: Emeta   =         0.000000
siesta: Emolmec =         0.000000
siesta: Ekinion =         0.000000
siesta: Eharris =    -12986.791472
siesta: Etot    =    -12734.178360
siesta: FreeEng =    -12734.178360

siesta: iscf   Eharris(eV)      E_KS(eV)   FreeEng(eV)   dDmax  Ef(eV)
siesta:    1   -12986.7915   -12734.1784   -12734.1784  0.7250 -2.7186
timer: Routine,Calls,Time,% = IterSCF        1    6578.891  99.81
elaps: Routine,Calls,Wall,% = IterSCF        1     823.401  99.80
siesta:    2   -13739.4834   -12277.5494   -12277.6291  0.7056 -2.8888
siesta:    3   -12754.2378   -12703.8750   -12703.9806  0.3738 -2.9145
siesta:    4   -12747.0471   -12712.2535   -12712.3071  0.3774 -2.9532
siesta:    5   -12745.3879   -12711.7968   -12711.8517  0.2879 -3.1050
siesta:    6   -12741.8764   -12724.2388   -12724.2937  0.0724 -3.6198
siesta:    7   -12740.7717   -12728.4511   -12728.5219  0.0578 -3.6088
siesta:    8   -12739.8927   -12734.8844   -12734.9529  0.0298 -3.5242
siesta:    9   -12739.8821   -12736.4006   -12736.4625  0.0227 -3.4975
siesta:   10   -12739.6361   -12738.4965   -12738.5584  0.0080 -3.4300
siesta:   11   -12739.6332   -12739.4637   -12739.5256  0.0061 -3.4106
siesta:   12   -12739.6258   -12739.5675   -12739.6296  0.0025 -3.4169
siesta:   13   -12739.6260   -12739.5729   -12739.6348  0.0020 -3.4182
siesta:   14   -12739.6257   -12739.5698   -12739.6317  0.0010 -3.4197
siesta:   15   -12739.6256   -12739.5720   -12739.6339  0.0008 -3.4199
siesta:   16   -12739.6256   -12739.5723   -12739.6342  0.0005 -3.4202
siesta:   17   -12739.6255   -12739.5788   -12739.6407  0.0002 -3.4203
siesta:   18   -12739.6255   -12739.5917   -12739.6536  0.0002 -3.4203
siesta:   19   -12739.6255   -12739.6030   -12739.6649  0.0002 -3.4202
siesta:   20   -12739.6255   -12739.6177   -12739.6796  0.0001 -3.4203

siesta: E_KS(eV) =           -12739.6188

siesta: E_KS - E_eggbox =    -12739.6188

siesta: Atomic forces (eV/Ang):
----------------------------------------
   Tot    0.186590   -0.334087    0.000000
----------------------------------------
   Max    0.359305
   Res    0.165156    sqrt( Sum f_i^2 / 3N )
----------------------------------------
   Max    0.359305    constrained

Stress-tensor-Voigt (kbar):        0.81        1.34        0.15       -0.20        0.00        0.00
(Free)E + p*V (eV/cell)   -12740.5861
Target enthalpy (eV/cell)   -12739.6807

siesta: Stress tensor (static) (eV/Ang**3):
         0.000507   -0.000124    0.000000
        -0.000124    0.000835    0.000000
         0.000000    0.000000    0.000092

siesta: Pressure (static):         -0.76614667  kBar

siesta: Stress tensor (total) (eV/Ang**3):
         0.000507   -0.000124    0.000000
        -0.000124    0.000835    0.000000
         0.000000    0.000000    0.000092

siesta: Pressure (total):         -0.76614667  kBar

siesta: Temp_ion =       0.000 K

* Maximum dynamic memory allocated =   203 MB

siesta: Program's energy decomposition (eV):
siesta: Ebs     =     -4186.385935
siesta: Eions   =     19849.732669
siesta: Ena     =      4064.226464
siesta: Ekin    =      8579.696718
siesta: Enl     =     -1058.858125
siesta: DEna    =      -247.211313
siesta: DUscf   =        22.377015
siesta: DUext   =         0.000000
siesta: Exc     =     -4250.116931
siesta: eta*DQ  =         0.000000
siesta: Emadel  =         0.000000
siesta: Emeta   =         0.000000
siesta: Emolmec =         0.000000
siesta: Ekinion =         0.000000
siesta: Eharris =    -12739.625535
siesta: Etot    =    -12739.618840
siesta: FreeEng =    -12739.680744

siesta: Final energy (eV):
siesta:  Band Struct. =   -4186.385935
siesta:       Kinetic =    8579.696718
siesta:       Hartree =   24794.938785
siesta:    Ext. field =       0.000000
siesta:   Exch.-corr. =   -4250.116931
siesta:  Ion-electron =  -57567.475697
siesta:       Ion-ion =   15703.338285
siesta:       Ekinion =       0.000000
siesta:         Total =  -12739.618840

siesta: Atomic forces (eV/Ang):
siesta:      1   -0.011470   -0.023549    0.000000
siesta:      2    0.009934   -0.024096    0.000000
siesta:      3   -0.023334   -0.024406    0.000000
siesta:      4   -0.003937   -0.006671    0.000000
siesta:      5    0.012008   -0.008527    0.000000
siesta:      6   -0.001550   -0.009280    0.000000
siesta:      7    0.007359   -0.010771    0.000000
siesta:      8   -0.015795   -0.005848    0.000000
siesta:      9    0.007310   -0.007370    0.000000
siesta:     10   -0.282390   -0.167987    0.000000
siesta:     11   -0.276974    0.168678    0.000000
siesta:     12    0.033971    0.322579    0.000000
siesta:     13    0.008492   -0.339782    0.000000
siesta:     14    0.298634   -0.159883    0.000000
siesta:     15    0.298825    0.162817    0.000000
siesta:     16    0.009870   -0.008046    0.000000
siesta:     17    0.010230   -0.341932    0.000000
siesta:     18    0.287782   -0.163975    0.000000
siesta:     19    0.298718    0.163288    0.000000
siesta:     20    0.009428   -0.009346    0.000000
siesta:     21    0.297070    0.170128    0.000000
siesta:     22   -0.007301    0.016658    0.000000
siesta:     23    0.011249   -0.358757    0.000000
siesta:     24    0.276642   -0.165725    0.000000
siesta:     25   -0.280901   -0.166421    0.000000
siesta:     26    0.014690   -0.359305    0.000000
siesta:     27    0.309527   -0.163828    0.000000
siesta:     28   -0.286036   -0.167939    0.000000
siesta:     29    0.014630   -0.358978    0.000000
siesta:     30    0.285932   -0.164780    0.000000
siesta:     31   -0.293699    0.167452    0.000000
siesta:     32   -0.004812    0.314855    0.000000
siesta:     33    0.296885    0.164463    0.000000
siesta:     34   -0.005047   -0.002615    0.000000
siesta:     35   -0.275282    0.160572    0.000000
siesta:     36    0.026804    0.306319    0.000000
siesta:     37    0.258844    0.172169    0.000000
siesta:     38   -0.008126   -0.003435    0.000000
siesta:     39   -0.278734    0.160567    0.000000
siesta:     40   -0.003570    0.314375    0.000000
siesta:     41   -0.283838   -0.160534    0.000000
siesta:     42    0.008630   -0.341814    0.000000
siesta:     43    0.276970   -0.160331    0.000000
siesta:     44   -0.244443   -0.170587    0.000000
siesta:     45   -0.019348   -0.333272    0.000000
siesta:     46    0.272428   -0.160829    0.000000
siesta:     47   -0.293710    0.165439    0.000000
siesta:     48   -0.005009    0.317213    0.000000
siesta:     49    0.302815    0.163005    0.000000
siesta:     50    0.023773   -0.010894    0.000000
siesta:     51   -0.318594    0.169180    0.000000
siesta:     52   -0.006352    0.314953    0.000000
siesta:     53   -0.284091   -0.163427    0.000000
siesta:     54    0.011267   -0.341168    0.000000
siesta:     55    0.310364   -0.162876    0.000000
siesta:     56   -0.260184    0.161908    0.000000
siesta:     57    0.035580    0.320415    0.000000
siesta:     58    0.259031    0.173512    0.000000
siesta:     59   -0.011557    0.013424    0.000000
siesta:     60   -0.281496   -0.161707    0.000000
siesta:     61    0.297392    0.163721    0.000000
siesta:     62   -0.004725   -0.004343    0.000000
siesta:     63   -0.286685   -0.162648    0.000000
siesta:     64   -0.281114    0.160992    0.000000
siesta:     65   -0.002478    0.314598    0.000000
siesta:     66    0.008728   -0.339615    0.000000
siesta:     67    0.277590   -0.162997    0.000000
siesta:     68   -0.280238    0.165231    0.000000
siesta:     69   -0.006590    0.326907    0.000000
siesta:     70   -0.281458   -0.164336    0.000000
siesta:     71    0.257418    0.174873    0.000000
siesta:     72   -0.029360    0.020251    0.000000
siesta: ----------------------------------------
siesta:    Tot    0.186590   -0.334087    0.000000

siesta: Stress tensor (static) (eV/Ang**3):
siesta:     0.000507   -0.000124    0.000000
siesta:    -0.000124    0.000835    0.000000
siesta:     0.000000    0.000000    0.000092

siesta: Cell volume =       1893.226895 Ang**3

siesta: Pressure (static):
siesta:                Solid            Molecule  Units
siesta:          -0.00000521         -0.00005631  Ry/Bohr**3
siesta:          -0.00047819         -0.00516979  eV/Ang**3
siesta:          -0.76614667         -8.28300014  kBar
(Free)E+ p_basis*V_orbitals  =      -12710.229798
(Free)Eharris+ p_basis*V_orbitals  =      -12710.237623

siesta: Electric dipole (a.u.)  =    0.000000    0.000000    0.000000
siesta: Electric dipole (Debye) =    0.000000    0.000000    0.000000

* Maximum dynamic memory allocated : Node    0 =   203 MB
* Maximum dynamic memory allocated : Node    1 =    74 MB
* Maximum dynamic memory allocated : Node    2 =    75 MB
* Maximum dynamic memory allocated : Node    3 =   192 MB
* Maximum dynamic memory allocated : Node    4 =   202 MB
* Maximum dynamic memory allocated : Node    5 =    73 MB
* Maximum dynamic memory allocated : Node    6 =    75 MB
* Maximum dynamic memory allocated : Node    7 =   186 MB

* Maximum memory occured during matrixMtoO                    

timer: CPU execution times:
timer:  Routine       Calls   Time/call    Tot.time        %
timer:  siesta            1  130622.959  130622.959   100.00
timer:  Setup             1       3.856       3.856     0.00
timer:  bands             1       0.020       0.020     0.00
timer:  writewave         1       0.042       0.042     0.00
timer:  KSV_init          1       0.006       0.006     0.00
timer:  IterMD            1  130611.185  130611.185    99.99
timer:  hsparse           1       0.258       0.258     0.00
timer:  overlap           1       6.330       6.330     0.00
timer:  IterSCF          20    6522.273  130445.457    99.86
timer:  kinefsm           2       3.261       6.521     0.00
timer:  nlefsm            2      18.741      37.482     0.03
timer:  DHSCF            21      87.904    1845.991     1.41
timer:  DHSCF1            1       0.767       0.767     0.00
timer:  DHSCF2            1      32.840      32.840     0.03
timer:  REORD           170       0.010       1.702     0.00
timer:  POISON           22       2.247      49.441     0.04
timer:  DHSCF3           21      84.781    1780.395     1.36
timer:  rhoofd           21      16.132     338.762     0.26
timer:  cellXC           21       3.479      73.051     0.06
timer:  vmat             21      43.171     906.600     0.69
timer:  MolMec            2       0.000       0.000     0.00
timer:  diagon           20    6432.565  128651.298    98.49
timer:  c-eigval       7040       6.671   46964.096    35.95
timer:  c-buildHS      7040       0.117     826.669     0.63
timer:  cdiag         14080       6.840   96313.750    73.73
timer:  cdiag1        14080       0.427    6010.465     4.60
timer:  cdiag2        14080       1.904   26804.234    20.52
timer:  cdiag3        14080       3.944   55537.453    42.52
timer:  cdiag4        14080       0.204    2867.949     2.20
timer:  c-eigvec       7040       7.200   50686.226    38.80
timer:  c-buildD       7040       4.395   30940.843    23.69
timer:  DHSCF4            1      30.835      30.835     0.02
timer:  dfscf             1      28.967      28.967     0.02
timer:  overfsm           1       0.374       0.374     0.00
timer:  optical           1       6.968       6.968     0.01
  

elaps: ELAPSED times:
elaps:  Routine       Calls   Time/call    Tot.time        %
elaps:  siesta            1   16346.477   16346.477   100.00
elaps:  Setup             1       0.498       0.498     0.00
elaps:  bands             1       0.002       0.002     0.00
elaps:  writewave         1       0.006       0.006     0.00
elaps:  KSV_init          1       0.001       0.001     0.00
elaps:  IterMD            1   16344.980   16344.980    99.99
elaps:  hsparse           1       0.031       0.031     0.00
elaps:  overlap           1       0.969       0.969     0.01
elaps:  IterSCF          20     816.218   16324.366    99.86
elaps:  kinefsm           2       0.497       0.993     0.01
elaps:  nlefsm            2       2.352       4.703     0.03
elaps:  DHSCF            21      11.152     234.195     1.43
elaps:  DHSCF1            1       0.097       0.097     0.00
elaps:  DHSCF2            1       4.105       4.105     0.03
elaps:  REORD           170       0.001       0.232     0.00
elaps:  POISON           22       0.281       6.182     0.04
elaps:  DHSCF3           21      10.607     222.737     1.36
elaps:  rhoofd           21       3.565      74.858     0.46
elaps:  cellXC           21       0.434       9.111     0.06
elaps:  vmat             21       5.401     113.412     0.69
elaps:  MolMec            2       0.000       0.000     0.00
elaps:  diagon           20     805.000   16100.004    98.49
elaps:  c-eigval       7040       0.835    5875.963    35.95
elaps:  c-buildHS      7040       0.016     112.539     0.69
elaps:  cdiag         14080       0.844   11888.136    72.73
elaps:  cdiag1        14080       0.053     751.384     4.60
elaps:  cdiag2        14080       0.238    3353.850    20.52
elaps:  cdiag3        14080       0.494    6958.222    42.57
elaps:  cdiag4        14080       0.026     360.459     2.21
elaps:  c-eigvec       7040       0.881    6204.728    37.96
elaps:  c-buildD       7040       0.570    4010.877    24.54
elaps:  DHSCF4            1       7.099       7.099     0.04
elaps:  dfscf             1       6.708       6.708     0.04
elaps:  overfsm           1       0.048       0.048     0.00
elaps:  optical           1       0.001       0.001     0.00
  
>> End of run:  28-NOV-2015  23:45:39
