Siesta Version:                                        siesta-3.2-pl-3
Architecture  : x86_64-unknown-linux-gnu--unknown
Compiler flags: mpiifort -g -O2 -fPIC -xSSE4.1 -fp-model source -shared-intel 
PARALLEL version

* Running on    8 nodes in parallel
>> Start of run:  28-NOV-2015  19:08:35

                           ***********************       
                           *  WELCOME TO SIESTA  *       
                           ***********************       

reinit: Reading from standard input
************************** Dump of input data file ****************************
#(1) General system descriptors
SystemName            GRP_doping    # Descriptive name of the system
SystemLabel           GRP_doping    # Short name for naming files
%include STRUCT.fdf
%include KPT.fdf
%include BASIS.fdf
#%include TS.fdf # for transiesta calculation
#(4) DFT, Grid, SCF
XC.functional         GGA           # LDA or GGA (default = LDA)
XC.authors            PBE           # CA (Ceperley-Aldr) = PZ
                                    #    (Perdew-Zunger) - LDA - Default
                                    # PW92 (Perdew-Wang-92) - LDA
                                    # PBE (Perdew-Burke-Ernzerhof) - GGA
MeshCutoff            200.000000    Ry      # Default: 50.0 Ry ~ 0.444 Bohr
                                    #         100.0 Ry ~ 0.314 Bohr
MaxSCFIterations      500           # Default: 50
DM.MixingWeight       0.05          # Default: 0.25
DM.NumberPulay        10            # Default: 0
DM.PulayOnFile        F             # SystemLabel.P1, SystemLabel.P2
DM.Tolerance          1.d-4         # Default: 1.d-4
DM.UseSaveDM          .true.        # because of the bug
SCFMustConverge       .true.
NeglNonOverlapInt     F             # Default: F
#(5) Eigenvalue problem: order-N or diagonalization
SolutionMethod        Diagon        # or Transiesta
ElectronicTemperature 300.0 K       # Default: 300.0 K
#(6) Molecular dynamics and relaxations
#MD.TypeOfRun          CG            # Type of dynamics:
#MD.VariableCell       F
#MD.NumCGsteps         0           # 0 for single-point / 100 for gopt
#MD.MaxCGDispl         0.2 Bohr      # Default: 0.2 Bohr
#MD.MaxForceTol        0.02 eV/Ang   # Default: 0.04 eV/Ang
#MD.MaxStressTol       1.0 GPa       # Default: 1.0 GPa
# Geometry Constraints
#%block GeometryConstraints
#	position from 1 to 44
#%endblock GeometryConstraints
************************** End of input data file *****************************

reinit: -----------------------------------------------------------------------
reinit: System Name: GRP_doping
reinit: -----------------------------------------------------------------------
reinit: System Label: GRP_doping                                                  
reinit: -----------------------------------------------------------------------

initatom: Reading input for the pseudopotentials and atomic orbitals ----------
 Species number:            1  Label: C Atomic number:           6
 Species number:            2  Label: B Atomic number:           5
Ground state valence configuration:   2s02  2p02
Reading pseudopotential information in formatted form from C.psf

Valence configuration for pseudopotential generation:
2s( 2.00) rc: 1.54
2p( 2.00) rc: 1.54
3d( 0.00) rc: 1.54
4f( 0.00) rc: 1.54
Ground state valence configuration:   2s02  2p01
Reading pseudopotential information in formatted form from B.psf

Valence configuration for pseudopotential generation:
2s( 2.00) rc: 1.74
2p( 1.00) rc: 1.74
3d( 0.00) rc: 1.74
4f( 0.00) rc: 1.74
For C, standard SIESTA heuristics set lmxkb to 3
 (one more than the basis l, including polarization orbitals).
Use PS.lmax or PS.KBprojectors blocks to override.
For B, standard SIESTA heuristics set lmxkb to 3
 (one more than the basis l, including polarization orbitals).
Use PS.lmax or PS.KBprojectors blocks to override.

<basis_specs>
===============================================================================
C                    Z=   6    Mass=  12.010        Charge= 0.17977+309
Lmxo=1 Lmxkb= 3    BasisType=split      Semic=F
L=0  Nsemic=0  Cnfigmx=2
          n=1  nzeta=2  polorb=0
            splnorm:   0.15000    
               vcte:    0.0000    
               rinn:    0.0000    
                rcs:    0.0000      0.0000    
            lambdas:    1.0000      1.0000    
L=1  Nsemic=0  Cnfigmx=2
          n=1  nzeta=2  polorb=1
            splnorm:   0.15000    
               vcte:    0.0000    
               rinn:    0.0000    
                rcs:    0.0000      0.0000    
            lambdas:    1.0000      1.0000    
-------------------------------------------------------------------------------
L=0  Nkbl=1  erefs: 0.17977+309
L=1  Nkbl=1  erefs: 0.17977+309
L=2  Nkbl=1  erefs: 0.17977+309
L=3  Nkbl=1  erefs: 0.17977+309
===============================================================================
</basis_specs>

atom: Called for C                     (Z =   6)

read_vps: Pseudopotential generation method:
read_vps: ATM3      Troullier-Martins                       
Total valence charge:    4.00000

read_vps: Pseudopotential includes a core correction:
read_vps: Pseudo-core for xc-correction

xc_check: Exchange-correlation functional:
xc_check: GGA Perdew, Burke & Ernzerhof 1996
V l=0 = -2*Zval/r beyond r=  1.5227
V l=1 = -2*Zval/r beyond r=  1.5227
V l=2 = -2*Zval/r beyond r=  1.5227
V l=3 = -2*Zval/r beyond r=  1.5038
All V_l potentials equal beyond r=  1.5227
This should be close to max(r_c) in ps generation
All pots = -2*Zval/r beyond r=  1.5227

VLOCAL1: 99.0% of the norm of Vloc inside     18.722 Ry
VLOCAL1: 99.9% of the norm of Vloc inside     42.668 Ry
atom: Maximum radius for 4*pi*r*r*local-pseudopot. charge    1.83678
atom: Maximum radius for r*vlocal+2*Zval:    1.58088
GHOST: No ghost state for L =  0
GHOST: No ghost state for L =  1
GHOST: No ghost state for L =  2
GHOST: No ghost state for L =  3

KBgen: Kleinman-Bylander projectors: 
   l= 0   rc=  1.704034   el= -1.009801   Ekb=  5.335044   kbcos=  0.316824
   l= 1   rc=  1.704034   el= -0.388707   Ekb= -3.785862   kbcos= -0.366464
   l= 2   rc=  1.791422   el=  0.001971   Ekb= -0.970471   kbcos= -0.009212
   l= 3   rc=  1.859892   el=  0.003065   Ekb= -0.399525   kbcos= -0.001223

KBgen: Total number of  Kleinman-Bylander projectors:   16
atom: -------------------------------------------------------------------------

atom: SANKEY-TYPE ORBITALS:
atom: Selected multiple-zeta basis: split     

SPLIT: Orbitals with angular momentum L= 0

SPLIT: Basis orbitals for state 2s

SPLIT: PAO cut-off radius determined from an
SPLIT: energy shift=  0.007350 Ry

   izeta = 1
                 lambda =    1.000000
                     rc =    4.632753
                 energy =   -1.002270
                kinetic =    0.855760
    potential(screened) =   -1.858031
       potential(ionic) =   -5.417575

   izeta = 2
                 rmatch =    3.431921
              splitnorm =    0.150000
                 energy =   -0.867111
                kinetic =    1.300804
    potential(screened) =   -2.167915
       potential(ionic) =   -5.962684

SPLIT: Orbitals with angular momentum L= 1

SPLIT: Basis orbitals for state 2p

SPLIT: PAO cut-off radius determined from an
SPLIT: energy shift=  0.007350 Ry

   izeta = 1
                 lambda =    1.000000
                     rc =    5.658549
                 energy =   -0.381140
                kinetic =    2.399701
    potential(screened) =   -2.780841
       potential(ionic) =   -6.206085

   izeta = 2
                 rmatch =    3.653288
              splitnorm =    0.150000
                 energy =   -0.249149
                kinetic =    3.542762
    potential(screened) =   -3.791911
       potential(ionic) =   -7.581078

POLgen: Perturbative polarization orbital with L=  2

POLgen: Polarization orbital for state 2p

   izeta = 1
                     rc =    5.658549
                 energy =    1.109913
                kinetic =    2.304789
    potential(screened) =   -1.194876
       potential(ionic) =   -4.013592
atom: Total number of Sankey-type orbitals: 13

atm_pop: Valence configuration (for local Pseudopot. screening):
 2s( 2.00)                                                            
 2p( 2.00)                                                            
Vna: chval, zval:    4.00000   4.00000

Vna:  Cut-off radius for the neutral-atom potential:   5.658549
comcore: Pseudo-core radius Rcore=  1.791422

atom: _________________________________________________________________________

<basis_specs>
===============================================================================
B                    Z=   5    Mass=  10.810        Charge= 0.17977+309
Lmxo=1 Lmxkb= 3    BasisType=split      Semic=F
L=0  Nsemic=0  Cnfigmx=2
          n=1  nzeta=2  polorb=0
            splnorm:   0.15000    
               vcte:    0.0000    
               rinn:    0.0000    
                rcs:    0.0000      0.0000    
            lambdas:    1.0000      1.0000    
L=1  Nsemic=0  Cnfigmx=2
          n=1  nzeta=2  polorb=1
            splnorm:   0.15000    
               vcte:    0.0000    
               rinn:    0.0000    
                rcs:    0.0000      0.0000    
            lambdas:    1.0000      1.0000    
-------------------------------------------------------------------------------
L=0  Nkbl=1  erefs: 0.17977+309
L=1  Nkbl=1  erefs: 0.17977+309
L=2  Nkbl=1  erefs: 0.17977+309
L=3  Nkbl=1  erefs: 0.17977+309
===============================================================================
</basis_specs>

atom: Called for B                     (Z =   5)

read_vps: Pseudopotential generation method:
read_vps: ATM3      Troullier-Martins                       
Total valence charge:    3.00000

read_vps: Pseudopotential includes a core correction:
read_vps: Pseudo-core for xc-correction

xc_check: Exchange-correlation functional:
xc_check: GGA Perdew, Burke & Ernzerhof 1996
V l=0 = -2*Zval/r beyond r=  1.7165
V l=1 = -2*Zval/r beyond r=  1.7165
V l=2 = -2*Zval/r beyond r=  1.7165
V l=3 = -2*Zval/r beyond r=  1.6951
All V_l potentials equal beyond r=  1.7165
This should be close to max(r_c) in ps generation
All pots = -2*Zval/r beyond r=  1.7165

VLOCAL1: 99.0% of the norm of Vloc inside     14.733 Ry
VLOCAL1: 99.9% of the norm of Vloc inside     33.577 Ry
atom: Maximum radius for 4*pi*r*r*local-pseudopot. charge    2.04484
atom: Maximum radius for r*vlocal+2*Zval:    1.75994
GHOST: No ghost state for L =  0
GHOST: No ghost state for L =  1
GHOST: No ghost state for L =  2
GHOST: No ghost state for L =  3

KBgen: Kleinman-Bylander projectors: 
   l= 0   rc=  1.897051   el= -0.693730   Ekb=  4.595746   kbcos=  0.286105
   l= 1   rc=  1.920920   el= -0.265236   Ekb= -2.350715   kbcos= -0.315747
   l= 2   rc=  2.044840   el=  0.002055   Ekb= -0.690767   kbcos= -0.013822
   l= 3   rc=  2.149707   el=  0.003188   Ekb= -0.315358   kbcos= -0.002055

KBgen: Total number of  Kleinman-Bylander projectors:   16
atom: -------------------------------------------------------------------------

atom: SANKEY-TYPE ORBITALS:
atom: Selected multiple-zeta basis: split     

SPLIT: Orbitals with angular momentum L= 0

SPLIT: Basis orbitals for state 2s

SPLIT: PAO cut-off radius determined from an
SPLIT: energy shift=  0.007350 Ry

   izeta = 1
                 lambda =    1.000000
                     rc =    5.422032
                 energy =   -0.686029
                kinetic =    0.576707
    potential(screened) =   -1.262736
       potential(ionic) =   -3.271094

   izeta = 2
                 rmatch =    4.222573
              splitnorm =    0.150000
                 energy =   -0.602132
                kinetic =    0.858975
    potential(screened) =   -1.461107
       potential(ionic) =   -3.582536

SPLIT: Orbitals with angular momentum L= 1

SPLIT: Basis orbitals for state 2p

SPLIT: PAO cut-off radius determined from an
SPLIT: energy shift=  0.007350 Ry

   izeta = 1
                 lambda =    1.000000
                     rc =    6.790259
                 energy =   -0.258578
                kinetic =    1.481412
    potential(screened) =   -1.739989
       potential(ionic) =   -3.657461

   izeta = 2
                 rmatch =    4.608740
              splitnorm =    0.150000
                 energy =   -0.173757
                kinetic =    2.186690
    potential(screened) =   -2.360447
       potential(ionic) =   -4.464260

POLgen: Perturbative polarization orbital with L=  2

POLgen: Polarization orbital for state 2p

   izeta = 1
                     rc =    6.790259
                 energy =    0.684082
                kinetic =    1.471481
    potential(screened) =   -0.787399
       potential(ionic) =   -2.406985
atom: Total number of Sankey-type orbitals: 13

atm_pop: Valence configuration (for local Pseudopot. screening):
 2s( 2.00)                                                            
 2p( 1.00)                                                            
Vna: chval, zval:    3.00000   3.00000

Vna:  Cut-off radius for the neutral-atom potential:   6.790259
comcore: Pseudo-core radius Rcore=  2.122997

atom: _________________________________________________________________________

prinput: Basis input ----------------------------------------------------------

PAO.BasisType split     

%block ChemicalSpeciesLabel
    1    6 C                       # Species index, atomic number, species label
    2    5 B                       # Species index, atomic number, species label
%endblock ChemicalSpeciesLabel

%block PAO.Basis                 # Define Basis set
C                     2                    # Species label, number of l-shells
 n=2   0   2                         # n, l, Nzeta 
   4.633      3.432   
   1.000      1.000   
 n=2   1   2 P   1                   # n, l, Nzeta, Polarization, NzetaPol
   5.659      3.653   
   1.000      1.000   
B                     2                    # Species label, number of l-shells
 n=2   0   2                         # n, l, Nzeta 
   5.422      4.223   
   1.000      1.000   
 n=2   1   2 P   1                   # n, l, Nzeta, Polarization, NzetaPol
   6.790      4.609   
   1.000      1.000   
%endblock PAO.Basis

prinput: ----------------------------------------------------------------------

coor:   Atomic-coordinates input format  =     Cartesian coordinates
coor:                                          (in Angstroms)

siesta: Atomic coordinates (Bohr) and species
siesta:      2.23554   1.32097   0.00000  1        1
siesta:     32.50328  21.48508   0.00000  1        2
siesta:     34.83141  22.82873   0.00000  1        3
siesta:     34.83116  17.45226   0.00000  1        4
siesta:     37.15930  18.79590   0.00000  1        5
siesta:     32.50291  13.41944   0.00000  1        6
siesta:     34.83104  14.76308   0.00000  1        7
siesta:     30.17465   9.38661   0.00000  1        8
siesta:     32.50278  10.73026   0.00000  1        9
siesta:     27.84639   5.35379   0.00000  1       10
siesta:     30.17453   6.69743   0.00000  1       11
siesta:     27.84714  21.48508   0.00000  1       12
siesta:     30.17527  22.82873   0.00000  1       13
siesta:      6.89168   1.32097   0.00000  1       14
siesta:      9.21981   2.66461   0.00000  1       15
siesta:     13.87595   2.66461   0.00000  1       16
siesta:     16.20396   1.32097   0.00000  1       17
siesta:     18.53210   2.66461   0.00000  1       18
siesta:     23.19013   2.66461   0.00000  1       19
siesta:     25.51813   1.32097   0.00000  1       20
siesta:     27.84627   2.66461   0.00000  1       21
siesta:      4.56380   5.35379   0.00000  1       22
siesta:      6.89193   6.69743   0.00000  1       23
siesta:      9.21994   5.35379   0.00000  1       24
siesta:     11.54807   6.69743   0.00000  1       25
siesta:     13.87608   5.35379   0.00000  1       26
siesta:     16.20421   6.69743   0.00000  1       27
siesta:     18.53411   5.35379   0.00000  1       28
siesta:     20.86224   6.69743   0.00000  1       29
siesta:     23.19025   5.35379   0.00000  1       30
siesta:     25.51838   6.69743   0.00000  1       31
siesta:      9.22019  10.73026   0.00000  1       32
siesta:     11.54820   9.38661   0.00000  1       33
siesta:     13.87633  10.73026   0.00000  1       34
siesta:     18.53247  10.73026   0.00000  1       35
siesta:     20.86237   9.38661   0.00000  1       36
siesta:     23.19050  10.73026   0.00000  1       37
siesta:      9.22031  13.41944   0.00000  1       38
siesta:     11.54845  14.76308   0.00000  1       39
siesta:     13.87645  13.41944   0.00000  1       40
siesta:     16.20459  14.76308   0.00000  1       41
siesta:     18.53448  13.41944   0.00000  1       42
siesta:     20.86262  14.76308   0.00000  1       43
siesta:     13.87670  18.79590   0.00000  1       44
siesta:     16.20471  17.45226   0.00000  1       45
siesta:     18.53284  18.79590   0.00000  1       46
siesta:     13.87683  21.48508   0.00000  1       47
siesta:     16.20496  22.82873   0.00000  1       48
siesta:     18.53486  21.48508   0.00000  1       49
siesta:     20.86299  22.82873   0.00000  1       50
siesta:     27.84664  10.73026   0.00000  1       51
siesta:     23.19063  13.41944   0.00000  1       52
siesta:     25.51876  14.76308   0.00000  1       53
siesta:     23.19088  18.79590   0.00000  1       54
siesta:     27.84677  13.41944   0.00000  1       55
siesta:     30.17490  14.76308   0.00000  1       56
siesta:     25.51888  17.45226   0.00000  1       57
siesta:     27.84702  18.79590   0.00000  1       58
siesta:     23.19100  21.48508   0.00000  1       59
siesta:     25.51913  22.82873   0.00000  1       60
siesta:     30.17503  17.45226   0.00000  1       61
siesta:     32.50316  18.79590   0.00000  1       62
siesta:     37.16131  21.48508   0.00000  1       63
siesta:      4.56367   2.66461   0.00000  2       64
siesta:     11.54782   1.32097   0.00000  2       65
siesta:     20.86199   1.32097   0.00000  2       66
siesta:      6.89205   9.38661   0.00000  2       67
siesta:     16.20434   9.38661   0.00000  2       68
siesta:     11.54857  17.45226   0.00000  2       69
siesta:     25.51851   9.38661   0.00000  2       70
siesta:     20.86274  17.45226   0.00000  2       71
siesta:     39.48945  22.82873   0.00000  2       72

siesta: System type = slab      

initatomlists: Number of atoms, orbitals, and projectors:     72   936  1152

siesta: ******************** Simulation parameters ****************************
siesta:
siesta: The following are some of the parameters of the simulation.
siesta: A complete list of the parameters used, including default values,
siesta: can be found in file out.fdf
siesta:
redata: Non-Collinear-spin run           =     F
redata: SpinPolarized (Up/Down) run      =     F
redata: Number of spin components        =     1
redata: Long output                      =     F
redata: Number of Atomic Species         =        2
redata: Charge density info will appear in .RHO file
redata: Write Mulliken Pop.              =     NO
redata: Mesh Cutoff                      =   200.0000  Ry
redata: Net charge of the system         =     0.0000 |e|
redata: Max. number of SCF Iter          =      500
redata: SCF convergence failure will abort job
redata: Performing Pulay mixing using    =    10 iterations
redata: Mix DM in first SCF step ?       =     F
redata: Write Pulay info on disk?        =     F
redata: Discard 1st Pulay DM after  kick =     F
redata: New DM Mixing Weight             =     0.0500
redata: New DM Occupancy tolerance       = 0.000000000001
redata: No kicks to SCF
redata: DM Mixing Weight for Kicks       =     0.5000
redata: DM Tolerance for SCF             =     0.000100
redata: Require Energy convergence for SCF =     F
redata: DM Energy tolerance for SCF      =     0.000100 eV
redata: Require Harris convergence for SCF =     F
redata: DM Harris energy tolerance for SCF =     0.000100 eV
redata: Using Saved Data (generic)   =     F
redata: Use continuation files for DM    =     T
redata: Neglect nonoverlap interactions  =     F
redata: Method of Calculation            =     Diagonalization
redata: Divide and Conquer               =     T
redata: Electronic Temperature           =     0.0019  Ry
redata: Fix the spin of the system       =     F
redata: Dynamics option                  =     Verlet MD run
redata: Initial MD time step             =        1
redata:   Final MD time step             =        1
redata: Length of MD time step           =     1.0000  fs
redata: Initial Temperature of MD run    =     0.0000  K
redata: Perform a MD quench              =     F
redata: ***********************************************************************
Total number of electrons:   279.000000
Total ionic charge:   279.000000

* ProcessorY, Blocksize:    2  24

k-point displ. along   1 input, could be:     0.00    0.50
k-point displ. along   2 input, could be:     0.00    0.50
 Kpoints in:          364 . Kpoints trimmed:          352

siesta: k-grid: Number of k-points =   352
siesta: k-grid: Cutoff (effective) =     5.000 Ang
siesta: k-grid: Supercell and displacements
siesta: k-grid:   26   0   0      0.000
siesta: k-grid:    0  26   0      0.000
siesta: k-grid:    0   0   1      0.000
Naive supercell factors:     2    2    2

superc: Internal auxiliary supercell:     2 x     2 x     2  =       8
superc: Number of atoms, orbitals, and projectors:    576   7488   9216

* Maximum dynamic memory allocated =     6 MB

siesta:                 ==============================
                            Begin MD step =      1
                        ==============================

superc: Internal auxiliary supercell:     2 x     2 x     2  =       8
superc: Number of atoms, orbitals, and projectors:    576   7488   9216

outcell: Unit cell vectors (Ang):
       14.785000    0.000000    0.000000
        7.393000   12.805052    0.000000
        0.000000    0.000000   10.000000

outcell: Cell vector modules (Ang)   :   14.785000   14.786000   10.000000
outcell: Cell angles (23,13,12) (deg):     90.0000     90.0000     60.0000
outcell: Cell volume (Ang**3)        :   1893.2269
New_DM. Step:     1
Initializing Density Matrix...

InitMesh: MESH =   120 x   120 x    90 =     1296000
InitMesh: Mesh cutoff (required, used) =   200.000   223.865 Ry

* Maximum dynamic memory allocated =   207 MB

stepf: Fermi-Dirac step function

siesta: Program's energy decomposition (eV):
siesta: Ebs     =     -4462.155662
siesta: Eions   =     17250.500670
siesta: Ena     =      3769.678980
siesta: Ekin    =      5903.534022
siesta: Enl     =       294.165200
siesta: DEna    =        -0.000010
siesta: DUscf   =         0.000000
siesta: DUext   =         0.000000
siesta: Exc     =     -3961.786522
siesta: eta*DQ  =         0.000000
siesta: Emadel  =         0.000000
siesta: Emeta   =         0.000000
siesta: Emolmec =         0.000000
siesta: Ekinion =         0.000000
siesta: Eharris =    -11173.068693
siesta: Etot    =    -11244.909001
siesta: FreeEng =    -11244.909001

siesta: iscf   Eharris(eV)      E_KS(eV)   FreeEng(eV)   dDmax  Ef(eV)
siesta:    1   -11173.0687   -11244.9090   -11244.9090  1.8848 -8.0893
timer: Routine,Calls,Time,% = IterSCF        1    6758.875  99.84
elaps: Routine,Calls,Wall,% = IterSCF        1     846.214  99.88
siesta:    2   -11183.1278   -11127.4163   -11127.4534  0.4258 -3.9755
siesta:    3   -11152.3989   -11161.8126   -11161.8642  0.4642 -5.5404
siesta:    4   -11150.5520   -11155.9410   -11155.9663  0.3673 -5.4780
siesta:    5   -11150.5125   -11146.8366   -11146.8608  0.1579 -5.6856
siesta:    6   -11149.1801   -11145.3206   -11145.3464  0.1236 -5.7771
siesta:    7   -11146.9083   -11142.6204   -11142.6540  0.0570 -5.8369
siesta:    8   -11146.5522   -11142.0113   -11142.0379  0.0464 -5.8569
siesta:    9   -11145.5552   -11142.1392   -11142.1646  0.0187 -5.8951
siesta:   10   -11145.4740   -11142.3420   -11142.3698  0.0169 -5.9067
siesta:   11   -11145.3902   -11142.9713   -11142.9996  0.0159 -5.9137
siesta:   12   -11145.3782   -11143.3431   -11143.3716  0.0120 -5.9149
siesta:   13   -11145.3770   -11143.6669   -11143.6965  0.0106 -5.9133
siesta:   14   -11145.3740   -11144.6868   -11144.7167  0.0057 -5.9080
siesta:   15   -11145.3735   -11145.0551   -11145.0852  0.0040 -5.9090
siesta:   16   -11145.3729   -11145.1499   -11145.1802  0.0034 -5.9104
siesta:   17   -11145.3724   -11145.4214   -11145.4515  0.0012 -5.9098
siesta:   18   -11145.3723   -11145.3688   -11145.3989  0.0011 -5.9101
siesta:   19   -11145.3722   -11145.3937   -11145.4239  0.0005 -5.9106
siesta:   20   -11145.3721   -11145.3924   -11145.4227  0.0003 -5.9108
siesta:   21   -11145.3721   -11145.3910   -11145.4213  0.0001 -5.9109
siesta:   22   -11145.3721   -11145.3799   -11145.4102  0.0001 -5.9109

siesta: E_KS(eV) =           -11145.3762

siesta: E_KS - E_eggbox =    -11145.3762

siesta: Atomic forces (eV/Ang):
----------------------------------------
   Tot    0.198833   -0.147118    0.000000
----------------------------------------
   Max    4.654323
   Res    1.324195    sqrt( Sum f_i^2 / 3N )
----------------------------------------
   Max    4.654323    constrained

Stress-tensor-Voigt (kbar):     -119.72     -117.85       -0.25       -1.30        0.00        0.00
(Free)E + p*V (eV/cell)   -11051.7309
Target enthalpy (eV/cell)   -11145.4065

siesta: Stress tensor (static) (eV/Ang**3):
        -0.074722   -0.000812    0.000000
        -0.000812   -0.073558    0.000000
         0.000000    0.000000   -0.000158

siesta: Pressure (static):         79.27544825  kBar

siesta: Stress tensor (total) (eV/Ang**3):
        -0.074722   -0.000812    0.000000
        -0.000812   -0.073558    0.000000
         0.000000    0.000000   -0.000158

siesta: Pressure (total):         79.27544825  kBar

siesta: Temp_ion =       0.000 K

* Maximum dynamic memory allocated =   222 MB

siesta: Program's energy decomposition (eV):
siesta: Ebs     =     -3689.711376
siesta: Eions   =     17250.500670
siesta: Ena     =      3769.678980
siesta: Ekin    =      7407.708218
siesta: Enl     =      -692.018038
siesta: DEna    =      -342.598921
siesta: DUscf   =        36.361681
siesta: DUext   =         0.000000
siesta: Exc     =     -4074.007416
siesta: eta*DQ  =         0.000000
siesta: Emadel  =         0.000000
siesta: Emeta   =         0.000000
siesta: Emolmec =         0.000000
siesta: Ekinion =         0.000000
siesta: Eharris =    -11145.372105
siesta: Etot    =    -11145.376166
siesta: FreeEng =    -11145.406482

siesta: Final energy (eV):
siesta:  Band Struct. =   -3689.711376
siesta:       Kinetic =    7407.708218
siesta:       Hartree =   21695.902211
siesta:    Ext. field =       0.000000
siesta:   Exch.-corr. =   -4074.007416
siesta:  Ion-electron =  -50129.557457
siesta:       Ion-ion =   13954.578277
siesta:       Ekinion =       0.000000
siesta:         Total =  -11145.376166

siesta: Atomic forces (eV/Ang):
siesta:      1   -2.962245   -1.730615    0.000000
siesta:      2   -0.007753   -0.211335    0.000000
siesta:      3    0.198186   -3.970113    0.000000
siesta:      4   -0.176314    0.078152    0.000000
siesta:      5   -3.360265    2.145062    0.000000
siesta:      6   -0.387583   -0.125628    0.000000
siesta:      7   -0.470508    0.358262    0.000000
siesta:      8   -0.182422    1.402686    0.000000
siesta:      9   -2.984500    1.557233    0.000000
siesta:     10   -0.394479    0.063983    0.000000
siesta:     11    0.543253   -0.043859    0.000000
siesta:     12   -0.288611   -0.296965    0.000000
siesta:     13    0.062212   -0.572228    0.000000
siesta:     14    3.045686   -1.603820    0.000000
siesta:     15   -2.779807    1.101458    0.000000
siesta:     16    2.815247    1.420854    0.000000
siesta:     17    0.077545    1.455193    0.000000
siesta:     18   -2.837588    1.495511    0.000000
siesta:     19    3.711858    1.836833    0.000000
siesta:     20   -0.193039    4.568512    0.000000
siesta:     21   -0.130403   -0.593201    0.000000
siesta:     22    0.148401    3.398071    0.000000
siesta:     23   -0.441802   -2.937344    0.000000
siesta:     24   -0.633352   -0.382598    0.000000
siesta:     25   -0.222804   -0.120640    0.000000
siesta:     26    1.092080   -0.476393    0.000000
siesta:     27    0.014849   -3.252715    0.000000
siesta:     28   -1.167124   -0.574555    0.000000
siesta:     29    0.208803    0.010136    0.000000
siesta:     30    0.695683   -0.239819    0.000000
siesta:     31    0.131924   -3.369444    0.000000
siesta:     32    2.635806    1.734908    0.000000
siesta:     33    0.146616    1.158209    0.000000
siesta:     34   -2.830390    1.628521    0.000000
siesta:     35    2.923828    1.662096    0.000000
siesta:     36   -0.104011    1.151981    0.000000
siesta:     37   -2.758301    1.702860    0.000000
siesta:     38    1.311698   -0.693231    0.000000
siesta:     39   -0.142979   -3.229422    0.000000
siesta:     40   -1.049548   -0.714075    0.000000
siesta:     41    0.136985    0.180271    0.000000
siesta:     42    0.926109   -0.651389    0.000000
siesta:     43    0.086294   -3.217132    0.000000
siesta:     44    3.445849    2.300976    0.000000
siesta:     45    0.155387    0.701124    0.000000
siesta:     46   -2.819349    1.801963    0.000000
siesta:     47    3.925536   -2.491150    0.000000
siesta:     48   -0.553921    0.187356    0.000000
siesta:     49   -0.164265   -0.392394    0.000000
siesta:     50    0.222386    0.507862    0.000000
siesta:     51    3.061557    1.628810    0.000000
siesta:     52   -1.212896   -0.718289    0.000000
siesta:     53    0.376802    0.225521    0.000000
siesta:     54    2.934815    1.844919    0.000000
siesta:     55    0.376528   -0.126707    0.000000
siesta:     56    0.018247    0.435507    0.000000
siesta:     57    0.088524    0.369292    0.000000
siesta:     58    0.382429   -0.195840    0.000000
siesta:     59    1.136859   -0.881749    0.000000
siesta:     60   -0.156153   -3.335683    0.000000
siesta:     61    0.017828   -0.004581    0.000000
siesta:     62   -0.374391   -0.212453    0.000000
siesta:     63   -4.654323   -2.674381    0.000000
siesta:     64   -0.409290   -0.217590    0.000000
siesta:     65    0.184430    0.004537    0.000000
siesta:     66   -0.336511   -0.091138    0.000000
siesta:     67    0.113906    0.124148    0.000000
siesta:     68   -0.060103   -0.052222    0.000000
siesta:     69   -0.218514   -0.234399    0.000000
siesta:     70    0.058137   -0.025944    0.000000
siesta:     71   -0.013876    0.052650    0.000000
siesta:     72    0.265966    0.218467    0.000000
siesta: ----------------------------------------
siesta:    Tot    0.198833   -0.147118    0.000000

siesta: Stress tensor (static) (eV/Ang**3):
siesta:    -0.074722   -0.000812    0.000000
siesta:    -0.000812   -0.073558    0.000000
siesta:     0.000000    0.000000   -0.000158

siesta: Cell volume =       1893.226895 Ang**3

siesta: Pressure (static):
siesta:                Solid            Molecule  Units
siesta:           0.00053889          0.00086813  Ry/Bohr**3
siesta:           0.04947931          0.07970846  eV/Ang**3
siesta:          79.27544825        127.70841970  kBar
(Free)E+ p_basis*V_orbitals  =      -11111.825283
(Free)Eharris+ p_basis*V_orbitals  =      -11111.817476

siesta: Electric dipole (a.u.)  =    0.000000    0.000000    0.000000
siesta: Electric dipole (Debye) =    0.000000    0.000000    0.000000

* Maximum dynamic memory allocated : Node    0 =   222 MB
* Maximum dynamic memory allocated : Node    1 =    80 MB
* Maximum dynamic memory allocated : Node    2 =    84 MB
* Maximum dynamic memory allocated : Node    3 =   211 MB
* Maximum dynamic memory allocated : Node    4 =   222 MB
* Maximum dynamic memory allocated : Node    5 =    81 MB
* Maximum dynamic memory allocated : Node    6 =    83 MB
* Maximum dynamic memory allocated : Node    7 =   204 MB

* Maximum memory occured during matrixMtoO                    

timer: CPU execution times:
timer:  Routine       Calls   Time/call    Tot.time        %
timer:  siesta            1  146755.959  146755.959   100.00
timer:  Setup             1       3.068       3.068     0.00
timer:  bands             1       0.011       0.011     0.00
timer:  writewave         1       0.018       0.018     0.00
timer:  KSV_init          1       0.003       0.003     0.00
timer:  IterMD            1  146744.765  146744.765    99.99
timer:  hsparse           1       0.393       0.393     0.00
timer:  overlap           1       6.402       6.402     0.00
timer:  IterSCF          22    6661.476  146552.479    99.86
timer:  kinefsm           2       3.353       6.706     0.00
timer:  nlefsm            2      20.399      40.798     0.03
timer:  DHSCF            23     109.076    2508.750     1.71
timer:  DHSCF1            1       0.995       0.995     0.00
timer:  DHSCF2            1      41.943      41.943     0.03
timer:  REORD           186       0.010       1.863     0.00
timer:  POISON           24       2.245      53.873     0.04
timer:  DHSCF3           23     105.546    2427.553     1.65
timer:  rhoofd           23      20.419     469.630     0.32
timer:  cellXC           23       3.523      81.032     0.06
timer:  vmat             23      51.717    1189.493     0.81
timer:  MolMec            2       0.000       0.000     0.00
timer:  diagon           22    6550.728  144116.019    98.20
timer:  c-eigval       7744       6.691   51818.250    35.31
timer:  c-buildHS      7744       0.122     946.989     0.65
timer:  cdiag         15488       6.899  106850.504    72.81
timer:  cdiag1        15488       0.428    6635.881     4.52
timer:  cdiag2        15488       1.907   29530.847    20.12
timer:  cdiag3        15488       3.955   61250.600    41.74
timer:  cdiag4        15488       0.229    3550.097     2.42
timer:  c-eigvec       7744       7.301   56541.013    38.53
timer:  c-buildD       7744       4.609   35692.075    24.32
timer:  DHSCF4            1      37.039      37.039     0.03
timer:  dfscf             1      34.496      34.496     0.02
timer:  overfsm           1       0.426       0.426     0.00
timer:  optical           1       7.105       7.105     0.00
  

elaps: ELAPSED times:
elaps:  Routine       Calls   Time/call    Tot.time        %
elaps:  siesta            1   18365.594   18365.594   100.00
elaps:  Setup             1       0.383       0.383     0.00
elaps:  bands             1       0.001       0.001     0.00
elaps:  writewave         1       0.002       0.002     0.00
elaps:  KSV_init          1       0.000       0.000     0.00
elaps:  IterMD            1   18364.194   18364.194    99.99
elaps:  hsparse           1       0.049       0.049     0.00
elaps:  overlap           1       0.529       0.529     0.00
elaps:  IterSCF          22     833.658   18340.474    99.86
elaps:  kinefsm           2       0.278       0.556     0.00
elaps:  nlefsm            2       2.623       5.246     0.03
elaps:  DHSCF            23      13.802     317.437     1.73
elaps:  DHSCF1            1       0.129       0.129     0.00
elaps:  DHSCF2            1       5.243       5.243     0.03
elaps:  REORD           186       0.001       0.245     0.00
elaps:  POISON           24       0.281       6.753     0.04
elaps:  DHSCF3           23      13.204     303.700     1.65
elaps:  rhoofd           23       4.226      97.209     0.53
elaps:  cellXC           23       0.440      10.120     0.06
elaps:  vmat             23       6.470     148.811     0.81
elaps:  MolMec            2       0.000       0.000     0.00
elaps:  diagon           22     819.808   18035.766    98.20
elaps:  c-eigval       7744       0.837    6483.373    35.30
elaps:  c-buildHS      7744       0.017     129.271     0.70
elaps:  cdiag         15488       0.852   13190.278    71.82
elaps:  cdiag1        15488       0.054     832.337     4.53
elaps:  cdiag2        15488       0.239    3695.071    20.12
elaps:  cdiag3        15488       0.495    7674.275    41.79
elaps:  cdiag4        15488       0.029     446.947     2.43
elaps:  c-eigvec       7744       0.895    6930.892    37.74
elaps:  c-buildD       7744       0.596    4612.433    25.11
elaps:  DHSCF4            1       8.200       8.200     0.04
elaps:  dfscf             1       7.712       7.712     0.04
elaps:  overfsm           1       0.052       0.052     0.00
elaps:  optical           1       0.000       0.000     0.00
  
>> End of run:  29-NOV-2015   0:14:41
