Siesta Version:                                        siesta-3.2-pl-3
Architecture  : x86_64-unknown-linux-gnu--unknown
Compiler flags: mpiifort -g -O2 -fPIC -xSSE4.1 -fp-model source -shared-intel 
PARALLEL version

* Running on    8 nodes in parallel
>> Start of run:   8-DEC-2015  15:05:38

                           ***********************       
                           *  WELCOME TO SIESTA  *       
                           ***********************       

reinit: Reading from standard input
************************** Dump of input data file ****************************
#(1) General system descriptors
SystemName            GRP_doping    # Descriptive name of the system
SystemLabel           GRP_doping    # Short name for naming files
%include STRUCT.fdf
%include KPT.fdf
%include BASIS.fdf
#%include TS.fdf # for transiesta calculation
#(4) DFT, Grid, SCF
XC.functional         GGA           # LDA or GGA (default = LDA)
XC.authors            PBE           # CA (Ceperley-Aldr) = PZ
                                    #    (Perdew-Zunger) - LDA - Default
                                    # PW92 (Perdew-Wang-92) - LDA
                                    # PBE (Perdew-Burke-Ernzerhof) - GGA
MeshCutoff            200.000000    Ry      # Default: 50.0 Ry ~ 0.444 Bohr
                                    #         100.0 Ry ~ 0.314 Bohr
MaxSCFIterations      500           # Default: 50
DM.MixingWeight       0.05          # Default: 0.25
DM.NumberPulay        10            # Default: 0
DM.PulayOnFile        F             # SystemLabel.P1, SystemLabel.P2
DM.Tolerance          1.d-4         # Default: 1.d-4
DM.UseSaveDM          .true.        # because of the bug
SCFMustConverge       .true.
NeglNonOverlapInt     F             # Default: F
#(5) Eigenvalue problem: order-N or diagonalization
SolutionMethod        Diagon        # or Transiesta
ElectronicTemperature 300.0 K       # Default: 300.0 K
#(6) Molecular dynamics and relaxations
#MD.TypeOfRun          CG            # Type of dynamics:
#MD.VariableCell       F
#MD.NumCGsteps         0           # 0 for single-point / 100 for gopt
#MD.MaxCGDispl         0.2 Bohr      # Default: 0.2 Bohr
#MD.MaxForceTol        0.02 eV/Ang   # Default: 0.04 eV/Ang
#MD.MaxStressTol       1.0 GPa       # Default: 1.0 GPa
# Geometry Constraints
#%block GeometryConstraints
#	position from 1 to 44
#%endblock GeometryConstraints
BandLinesScale   pi/a
%block BandLines
 1   0.00000000  0.00000000  0.00000000
50   0.00000000  0.07809418  0.00000000
50   0.04509075  0.07809242  0.00000000
20   0.00000000  0.00000000  0.00000000
%endblock BandLines
************************** End of input data file *****************************

reinit: -----------------------------------------------------------------------
reinit: System Name: GRP_doping
reinit: -----------------------------------------------------------------------
reinit: System Label: GRP_doping                                                  
reinit: -----------------------------------------------------------------------

initatom: Reading input for the pseudopotentials and atomic orbitals ----------
 Species number:            1  Label: C Atomic number:           6
 Species number:            2  Label: B Atomic number:           5
Ground state valence configuration:   2s02  2p02
Reading pseudopotential information in formatted form from C.psf

Valence configuration for pseudopotential generation:
2s( 2.00) rc: 1.54
2p( 2.00) rc: 1.54
3d( 0.00) rc: 1.54
4f( 0.00) rc: 1.54
Ground state valence configuration:   2s02  2p01
Reading pseudopotential information in formatted form from B.psf

Valence configuration for pseudopotential generation:
2s( 2.00) rc: 1.74
2p( 1.00) rc: 1.74
3d( 0.00) rc: 1.74
4f( 0.00) rc: 1.74
For C, standard SIESTA heuristics set lmxkb to 3
 (one more than the basis l, including polarization orbitals).
Use PS.lmax or PS.KBprojectors blocks to override.
For B, standard SIESTA heuristics set lmxkb to 3
 (one more than the basis l, including polarization orbitals).
Use PS.lmax or PS.KBprojectors blocks to override.

<basis_specs>
===============================================================================
C                    Z=   6    Mass=  12.010        Charge= 0.17977+309
Lmxo=1 Lmxkb= 3    BasisType=split      Semic=F
L=0  Nsemic=0  Cnfigmx=2
          n=1  nzeta=2  polorb=0
            splnorm:   0.15000    
               vcte:    0.0000    
               rinn:    0.0000    
                rcs:    0.0000      0.0000    
            lambdas:    1.0000      1.0000    
L=1  Nsemic=0  Cnfigmx=2
          n=1  nzeta=2  polorb=1
            splnorm:   0.15000    
               vcte:    0.0000    
               rinn:    0.0000    
                rcs:    0.0000      0.0000    
            lambdas:    1.0000      1.0000    
-------------------------------------------------------------------------------
L=0  Nkbl=1  erefs: 0.17977+309
L=1  Nkbl=1  erefs: 0.17977+309
L=2  Nkbl=1  erefs: 0.17977+309
L=3  Nkbl=1  erefs: 0.17977+309
===============================================================================
</basis_specs>

atom: Called for C                     (Z =   6)

read_vps: Pseudopotential generation method:
read_vps: ATM3      Troullier-Martins                       
Total valence charge:    4.00000

read_vps: Pseudopotential includes a core correction:
read_vps: Pseudo-core for xc-correction

xc_check: Exchange-correlation functional:
xc_check: GGA Perdew, Burke & Ernzerhof 1996
V l=0 = -2*Zval/r beyond r=  1.5227
V l=1 = -2*Zval/r beyond r=  1.5227
V l=2 = -2*Zval/r beyond r=  1.5227
V l=3 = -2*Zval/r beyond r=  1.5038
All V_l potentials equal beyond r=  1.5227
This should be close to max(r_c) in ps generation
All pots = -2*Zval/r beyond r=  1.5227

VLOCAL1: 99.0% of the norm of Vloc inside     18.722 Ry
VLOCAL1: 99.9% of the norm of Vloc inside     42.668 Ry
atom: Maximum radius for 4*pi*r*r*local-pseudopot. charge    1.83678
atom: Maximum radius for r*vlocal+2*Zval:    1.58088
GHOST: No ghost state for L =  0
GHOST: No ghost state for L =  1
GHOST: No ghost state for L =  2
GHOST: No ghost state for L =  3

KBgen: Kleinman-Bylander projectors: 
   l= 0   rc=  1.704034   el= -1.009801   Ekb=  5.335044   kbcos=  0.316824
   l= 1   rc=  1.704034   el= -0.388707   Ekb= -3.785862   kbcos= -0.366464
   l= 2   rc=  1.791422   el=  0.001971   Ekb= -0.970471   kbcos= -0.009212
   l= 3   rc=  1.859892   el=  0.003065   Ekb= -0.399525   kbcos= -0.001223

KBgen: Total number of  Kleinman-Bylander projectors:   16
atom: -------------------------------------------------------------------------

atom: SANKEY-TYPE ORBITALS:
atom: Selected multiple-zeta basis: split     

SPLIT: Orbitals with angular momentum L= 0

SPLIT: Basis orbitals for state 2s

SPLIT: PAO cut-off radius determined from an
SPLIT: energy shift=  0.007350 Ry

   izeta = 1
                 lambda =    1.000000
                     rc =    4.632753
                 energy =   -1.002270
                kinetic =    0.855760
    potential(screened) =   -1.858031
       potential(ionic) =   -5.417575

   izeta = 2
                 rmatch =    3.431921
              splitnorm =    0.150000
                 energy =   -0.867111
                kinetic =    1.300804
    potential(screened) =   -2.167915
       potential(ionic) =   -5.962684

SPLIT: Orbitals with angular momentum L= 1

SPLIT: Basis orbitals for state 2p

SPLIT: PAO cut-off radius determined from an
SPLIT: energy shift=  0.007350 Ry

   izeta = 1
                 lambda =    1.000000
                     rc =    5.658549
                 energy =   -0.381140
                kinetic =    2.399701
    potential(screened) =   -2.780841
       potential(ionic) =   -6.206085

   izeta = 2
                 rmatch =    3.653288
              splitnorm =    0.150000
                 energy =   -0.249149
                kinetic =    3.542762
    potential(screened) =   -3.791911
       potential(ionic) =   -7.581078

POLgen: Perturbative polarization orbital with L=  2

POLgen: Polarization orbital for state 2p

   izeta = 1
                     rc =    5.658549
                 energy =    1.109913
                kinetic =    2.304789
    potential(screened) =   -1.194876
       potential(ionic) =   -4.013592
atom: Total number of Sankey-type orbitals: 13

atm_pop: Valence configuration (for local Pseudopot. screening):
 2s( 2.00)                                                            
 2p( 2.00)                                                            
Vna: chval, zval:    4.00000   4.00000

Vna:  Cut-off radius for the neutral-atom potential:   5.658549
comcore: Pseudo-core radius Rcore=  1.791422

atom: _________________________________________________________________________

<basis_specs>
===============================================================================
B                    Z=   5    Mass=  10.810        Charge= 0.17977+309
Lmxo=1 Lmxkb= 3    BasisType=split      Semic=F
L=0  Nsemic=0  Cnfigmx=2
          n=1  nzeta=2  polorb=0
            splnorm:   0.15000    
               vcte:    0.0000    
               rinn:    0.0000    
                rcs:    0.0000      0.0000    
            lambdas:    1.0000      1.0000    
L=1  Nsemic=0  Cnfigmx=2
          n=1  nzeta=2  polorb=1
            splnorm:   0.15000    
               vcte:    0.0000    
               rinn:    0.0000    
                rcs:    0.0000      0.0000    
            lambdas:    1.0000      1.0000    
-------------------------------------------------------------------------------
L=0  Nkbl=1  erefs: 0.17977+309
L=1  Nkbl=1  erefs: 0.17977+309
L=2  Nkbl=1  erefs: 0.17977+309
L=3  Nkbl=1  erefs: 0.17977+309
===============================================================================
</basis_specs>

atom: Called for B                     (Z =   5)

read_vps: Pseudopotential generation method:
read_vps: ATM3      Troullier-Martins                       
Total valence charge:    3.00000

read_vps: Pseudopotential includes a core correction:
read_vps: Pseudo-core for xc-correction

xc_check: Exchange-correlation functional:
xc_check: GGA Perdew, Burke & Ernzerhof 1996
V l=0 = -2*Zval/r beyond r=  1.7165
V l=1 = -2*Zval/r beyond r=  1.7165
V l=2 = -2*Zval/r beyond r=  1.7165
V l=3 = -2*Zval/r beyond r=  1.6951
All V_l potentials equal beyond r=  1.7165
This should be close to max(r_c) in ps generation
All pots = -2*Zval/r beyond r=  1.7165

VLOCAL1: 99.0% of the norm of Vloc inside     14.733 Ry
VLOCAL1: 99.9% of the norm of Vloc inside     33.577 Ry
atom: Maximum radius for 4*pi*r*r*local-pseudopot. charge    2.04484
atom: Maximum radius for r*vlocal+2*Zval:    1.75994
GHOST: No ghost state for L =  0
GHOST: No ghost state for L =  1
GHOST: No ghost state for L =  2
GHOST: No ghost state for L =  3

KBgen: Kleinman-Bylander projectors: 
   l= 0   rc=  1.897051   el= -0.693730   Ekb=  4.595746   kbcos=  0.286105
   l= 1   rc=  1.920920   el= -0.265236   Ekb= -2.350715   kbcos= -0.315747
   l= 2   rc=  2.044840   el=  0.002055   Ekb= -0.690767   kbcos= -0.013822
   l= 3   rc=  2.149707   el=  0.003188   Ekb= -0.315358   kbcos= -0.002055

KBgen: Total number of  Kleinman-Bylander projectors:   16
atom: -------------------------------------------------------------------------

atom: SANKEY-TYPE ORBITALS:
atom: Selected multiple-zeta basis: split     

SPLIT: Orbitals with angular momentum L= 0

SPLIT: Basis orbitals for state 2s

SPLIT: PAO cut-off radius determined from an
SPLIT: energy shift=  0.007350 Ry

   izeta = 1
                 lambda =    1.000000
                     rc =    5.422032
                 energy =   -0.686029
                kinetic =    0.576707
    potential(screened) =   -1.262736
       potential(ionic) =   -3.271094

   izeta = 2
                 rmatch =    4.222573
              splitnorm =    0.150000
                 energy =   -0.602132
                kinetic =    0.858975
    potential(screened) =   -1.461107
       potential(ionic) =   -3.582536

SPLIT: Orbitals with angular momentum L= 1

SPLIT: Basis orbitals for state 2p

SPLIT: PAO cut-off radius determined from an
SPLIT: energy shift=  0.007350 Ry

   izeta = 1
                 lambda =    1.000000
                     rc =    6.790259
                 energy =   -0.258578
                kinetic =    1.481412
    potential(screened) =   -1.739989
       potential(ionic) =   -3.657461

   izeta = 2
                 rmatch =    4.608740
              splitnorm =    0.150000
                 energy =   -0.173757
                kinetic =    2.186690
    potential(screened) =   -2.360447
       potential(ionic) =   -4.464260

POLgen: Perturbative polarization orbital with L=  2

POLgen: Polarization orbital for state 2p

   izeta = 1
                     rc =    6.790259
                 energy =    0.684082
                kinetic =    1.471481
    potential(screened) =   -0.787399
       potential(ionic) =   -2.406985
atom: Total number of Sankey-type orbitals: 13

atm_pop: Valence configuration (for local Pseudopot. screening):
 2s( 2.00)                                                            
 2p( 1.00)                                                            
Vna: chval, zval:    3.00000   3.00000

Vna:  Cut-off radius for the neutral-atom potential:   6.790259
comcore: Pseudo-core radius Rcore=  2.122997

atom: _________________________________________________________________________

prinput: Basis input ----------------------------------------------------------

PAO.BasisType split     

%block ChemicalSpeciesLabel
    1    6 C                       # Species index, atomic number, species label
    2    5 B                       # Species index, atomic number, species label
%endblock ChemicalSpeciesLabel

%block PAO.Basis                 # Define Basis set
C                     2                    # Species label, number of l-shells
 n=2   0   2                         # n, l, Nzeta 
   4.633      3.432   
   1.000      1.000   
 n=2   1   2 P   1                   # n, l, Nzeta, Polarization, NzetaPol
   5.659      3.653   
   1.000      1.000   
B                     2                    # Species label, number of l-shells
 n=2   0   2                         # n, l, Nzeta 
   5.422      4.223   
   1.000      1.000   
 n=2   1   2 P   1                   # n, l, Nzeta, Polarization, NzetaPol
   6.790      4.609   
   1.000      1.000   
%endblock PAO.Basis

prinput: ----------------------------------------------------------------------

coor:   Atomic-coordinates input format  =     Cartesian coordinates
coor:                                          (in Angstroms)

siesta: Atomic coordinates (Bohr) and species
siesta:      2.23554   1.32097   0.00000  1        1
siesta:      4.56367   2.66461   0.00000  1        2
siesta:     32.50328  21.48508   0.00000  1        3
siesta:     34.83141  22.82873   0.00000  1        4
siesta:     34.83116  17.45226   0.00000  1        5
siesta:     37.15930  18.79590   0.00000  1        6
siesta:     32.50291  13.41944   0.00000  1        7
siesta:     34.83104  14.76308   0.00000  1        8
siesta:     30.17465   9.38661   0.00000  1        9
siesta:     32.50278  10.73026   0.00000  1       10
siesta:     27.84639   5.35379   0.00000  1       11
siesta:     30.17453   6.69743   0.00000  1       12
siesta:     27.84714  21.48508   0.00000  1       13
siesta:     30.17527  22.82873   0.00000  1       14
siesta:      6.89168   1.32097   0.00000  1       15
siesta:      9.21981   2.66461   0.00000  1       16
siesta:     11.54782   1.32097   0.00000  1       17
siesta:     13.87595   2.66461   0.00000  1       18
siesta:     16.20396   1.32097   0.00000  1       19
siesta:     18.53210   2.66461   0.00000  1       20
siesta:     20.86199   1.32097   0.00000  1       21
siesta:     23.19013   2.66461   0.00000  1       22
siesta:     25.51813   1.32097   0.00000  1       23
siesta:     27.84627   2.66461   0.00000  1       24
siesta:      4.56380   5.35379   0.00000  1       25
siesta:      6.89193   6.69743   0.00000  1       26
siesta:      9.21994   5.35379   0.00000  1       27
siesta:     11.54807   6.69743   0.00000  1       28
siesta:     13.87608   5.35379   0.00000  1       29
siesta:     16.20421   6.69743   0.00000  1       30
siesta:     18.53411   5.35379   0.00000  1       31
siesta:     20.86224   6.69743   0.00000  1       32
siesta:     23.19025   5.35379   0.00000  1       33
siesta:     25.51838   6.69743   0.00000  1       34
siesta:      6.89205   9.38661   0.00000  1       35
siesta:      9.22019  10.73026   0.00000  1       36
siesta:     11.54820   9.38661   0.00000  1       37
siesta:     13.87633  10.73026   0.00000  1       38
siesta:     16.20434   9.38661   0.00000  1       39
siesta:      9.22031  13.41944   0.00000  1       40
siesta:     11.54845  14.76308   0.00000  1       41
siesta:     13.87645  13.41944   0.00000  1       42
siesta:     16.20459  14.76308   0.00000  1       43
siesta:     11.54857  17.45226   0.00000  1       44
siesta:     13.87670  18.79590   0.00000  1       45
siesta:     16.20471  17.45226   0.00000  1       46
siesta:     18.53284  18.79590   0.00000  1       47
siesta:     13.87683  21.48508   0.00000  1       48
siesta:     16.20496  22.82873   0.00000  1       49
siesta:     18.53486  21.48508   0.00000  1       50
siesta:     20.86299  22.82873   0.00000  1       51
siesta:     25.51851   9.38661   0.00000  1       52
siesta:     27.84664  10.73026   0.00000  1       53
siesta:     25.51876  14.76308   0.00000  1       54
siesta:     20.86274  17.45226   0.00000  1       55
siesta:     23.19088  18.79590   0.00000  1       56
siesta:     27.84677  13.41944   0.00000  1       57
siesta:     30.17490  14.76308   0.00000  1       58
siesta:     25.51888  17.45226   0.00000  1       59
siesta:     27.84702  18.79590   0.00000  1       60
siesta:     23.19100  21.48508   0.00000  1       61
siesta:     25.51913  22.82873   0.00000  1       62
siesta:     30.17503  17.45226   0.00000  1       63
siesta:     32.50316  18.79590   0.00000  1       64
siesta:     37.16131  21.48508   0.00000  1       65
siesta:     39.48945  22.82873   0.00000  1       66
siesta:     18.53247  10.73026   0.00000  2       67
siesta:     20.86237   9.38661   0.00000  2       68
siesta:     23.19050  10.73026   0.00000  2       69
siesta:     18.53448  13.41944   0.00000  2       70
siesta:     20.86262  14.76308   0.00000  2       71
siesta:     23.19063  13.41944   0.00000  2       72

siesta: System type = slab      

initatomlists: Number of atoms, orbitals, and projectors:     72   936  1152

siesta: ******************** Simulation parameters ****************************
siesta:
siesta: The following are some of the parameters of the simulation.
siesta: A complete list of the parameters used, including default values,
siesta: can be found in file out.fdf
siesta:
redata: Non-Collinear-spin run           =     F
redata: SpinPolarized (Up/Down) run      =     F
redata: Number of spin components        =     1
redata: Long output                      =     F
redata: Number of Atomic Species         =        2
redata: Charge density info will appear in .RHO file
redata: Write Mulliken Pop.              =     NO
redata: Mesh Cutoff                      =   200.0000  Ry
redata: Net charge of the system         =     0.0000 |e|
redata: Max. number of SCF Iter          =      500
redata: SCF convergence failure will abort job
redata: Performing Pulay mixing using    =    10 iterations
redata: Mix DM in first SCF step ?       =     F
redata: Write Pulay info on disk?        =     F
redata: Discard 1st Pulay DM after  kick =     F
redata: New DM Mixing Weight             =     0.0500
redata: New DM Occupancy tolerance       = 0.000000000001
redata: No kicks to SCF
redata: DM Mixing Weight for Kicks       =     0.5000
redata: DM Tolerance for SCF             =     0.000100
redata: Require Energy convergence for SCF =     F
redata: DM Energy tolerance for SCF      =     0.000100 eV
redata: Require Harris convergence for SCF =     F
redata: DM Harris energy tolerance for SCF =     0.000100 eV
redata: Using Saved Data (generic)   =     F
redata: Use continuation files for DM    =     T
redata: Neglect nonoverlap interactions  =     F
redata: Method of Calculation            =     Diagonalization
redata: Divide and Conquer               =     T
redata: Electronic Temperature           =     0.0019  Ry
redata: Fix the spin of the system       =     F
redata: Dynamics option                  =     Verlet MD run
redata: Initial MD time step             =        1
redata:   Final MD time step             =        1
redata: Length of MD time step           =     1.0000  fs
redata: Initial Temperature of MD run    =     0.0000  K
redata: Perform a MD quench              =     F
redata: ***********************************************************************
Total number of electrons:   282.000000
Total ionic charge:   282.000000

* ProcessorY, Blocksize:    2  24

k-point displ. along   1 input, could be:     0.00    0.50
k-point displ. along   2 input, could be:     0.00    0.50
 Kpoints in:          364 . Kpoints trimmed:          352

siesta: k-grid: Number of k-points =   352
siesta: k-grid: Cutoff (effective) =     5.000 Ang
siesta: k-grid: Supercell and displacements
siesta: k-grid:   26   0   0      0.000
siesta: k-grid:    0  26   0      0.000
siesta: k-grid:    0   0   1      0.000
Naive supercell factors:     2    2    2

superc: Internal auxiliary supercell:     2 x     2 x     2  =       8
superc: Number of atoms, orbitals, and projectors:    576   7488   9216

* Maximum dynamic memory allocated =     6 MB

siesta:                 ==============================
                            Begin MD step =      1
                        ==============================

superc: Internal auxiliary supercell:     2 x     2 x     2  =       8
superc: Number of atoms, orbitals, and projectors:    576   7488   9216

outcell: Unit cell vectors (Ang):
       14.785000    0.000000    0.000000
        7.393000   12.805052    0.000000
        0.000000    0.000000   10.000000

outcell: Cell vector modules (Ang)   :   14.785000   14.786000   10.000000
outcell: Cell angles (23,13,12) (deg):     90.0000     90.0000     60.0000
outcell: Cell volume (Ang**3)        :   1893.2269
New_DM. Step:     1
Initializing Density Matrix...

iodm: Reading Density Matrix from files

InitMesh: MESH =   120 x   120 x    90 =     1296000
InitMesh: Mesh cutoff (required, used) =   200.000   223.865 Ry

* Maximum dynamic memory allocated =   204 MB

stepf: Fermi-Dirac step function

siesta: Program's energy decomposition (eV):
siesta: Ebs     =     -3804.165908
siesta: Eions   =     17634.670804
siesta: Ena     =      3839.088780
siesta: Ekin    =      7533.245450
siesta: Enl     =      -721.885285
siesta: DEna    =      -307.529380
siesta: DUscf   =        29.314558
siesta: DUext   =         0.000000
siesta: Exc     =     -4057.097194
siesta: eta*DQ  =         0.000000
siesta: Emadel  =         0.000000
siesta: Emeta   =         0.000000
siesta: Emolmec =         0.000000
siesta: Ekinion =         0.000000
siesta: Eharris =    -11319.529653
siesta: Etot    =    -11319.533874
siesta: FreeEng =    -11319.533874

siesta: iscf   Eharris(eV)      E_KS(eV)   FreeEng(eV)   dDmax  Ef(eV)
siesta:    1   -11319.5297   -11319.5339   -11319.5339  0.0001 -5.1575
timer: Routine,Calls,Time,% = IterSCF        1    8101.539  99.85
elaps: Routine,Calls,Wall,% = IterSCF        1    1014.311  99.85

siesta: E_KS(eV) =           -11319.5297

siesta: E_KS - E_eggbox =    -11319.5297

siesta: Atomic forces (eV/Ang):
----------------------------------------
   Tot    0.195557   -0.242592    0.000000
----------------------------------------
   Max    4.305473
   Res    0.972005    sqrt( Sum f_i^2 / 3N )
----------------------------------------
   Max    4.305473    constrained

Stress-tensor-Voigt (kbar):      -86.21      -84.99       -0.16       -0.58        0.00        0.00
(Free)E + p*V (eV/cell)   -11252.0997
Target enthalpy (eV/cell)   -11319.5974

siesta: Stress tensor (static) (eV/Ang**3):
        -0.053811   -0.000364    0.000000
        -0.000364   -0.053048    0.000000
         0.000000    0.000000   -0.000098

siesta: Pressure (static):         57.12172653  kBar

siesta: Stress tensor (total) (eV/Ang**3):
        -0.053811   -0.000364    0.000000
        -0.000364   -0.053048    0.000000
         0.000000    0.000000   -0.000098

siesta: Pressure (total):         57.12172653  kBar

siesta: Temp_ion =       0.000 K

* Maximum dynamic memory allocated =   218 MB
Computing bands...

siesta: Program's energy decomposition (eV):
siesta: Ebs     =     -3804.165908
siesta: Eions   =     17634.670804
siesta: Ena     =      3839.088780
siesta: Ekin    =      7533.275843
siesta: Enl     =      -721.892953
siesta: DEna    =      -307.545556
siesta: DUscf   =        29.317219
siesta: DUext   =         0.000000
siesta: Exc     =     -4057.102180
siesta: eta*DQ  =         0.000000
siesta: Emadel  =         0.000000
siesta: Emeta   =         0.000000
siesta: Emolmec =         0.000000
siesta: Ekinion =         0.000000
siesta: Eharris =    -11319.529653
siesta: Etot    =    -11319.529651
siesta: FreeEng =    -11319.597387

siesta: Final energy (eV):
siesta:  Band Struct. =   -3804.165908
siesta:       Kinetic =    7533.275843
siesta:       Hartree =   22191.778211
siesta:    Ext. field =       0.000000
siesta:   Exch.-corr. =   -4057.102180
siesta:  Ion-electron =  -51306.913841
siesta:       Ion-ion =   14319.432316
siesta:       Ekinion =       0.000000
siesta:         Total =  -11319.529651

siesta: Atomic forces (eV/Ang):
siesta:      1   -0.265913   -0.176953    0.000000
siesta:      2    0.184033    0.105739    0.000000
siesta:      3    0.196742   -0.113393    0.000000
siesta:      4    0.035731   -0.161552    0.000000
siesta:      5    0.006987    0.205345    0.000000
siesta:      6   -0.133584    0.091686    0.000000
siesta:      7    0.259636   -0.107951    0.000000
siesta:      8    0.013528   -0.293056    0.000000
siesta:      9   -0.138646    0.067657    0.000000
siesta:     10    0.264135    0.092181    0.000000
siesta:     11   -0.135604    0.079492    0.000000
siesta:     12   -0.140662    0.086372    0.000000
siesta:     13    0.050056    0.257074    0.000000
siesta:     14   -0.256042    0.171041    0.000000
siesta:     15    0.009763    0.147836    0.000000
siesta:     16   -0.188685    0.106708    0.000000
siesta:     17    0.262660   -0.178372    0.000000
siesta:     18   -0.045053   -0.265853    0.000000
siesta:     19   -0.194263   -0.202055    0.000000
siesta:     20    0.043520    0.164168    0.000000
siesta:     21   -0.029621    0.143601    0.000000
siesta:     22   -0.012089    0.167266    0.000000
siesta:     23    0.220668   -0.201886    0.000000
siesta:     24    0.052476   -0.267947    0.000000
siesta:     25    0.150031   -0.096765    0.000000
siesta:     26   -0.003579   -0.211179    0.000000
siesta:     27   -0.149711   -0.102048    0.000000
siesta:     28    0.145801    0.087975    0.000000
siesta:     29    0.155780    0.079419    0.000000
siesta:     30   -0.827493    0.323575    0.000000
siesta:     31    0.680256   -0.578703    0.000000
siesta:     32   -0.024263   -3.624926    0.000000
siesta:     33   -0.703172   -0.582413    0.000000
siesta:     34    0.849744    0.329705    0.000000
siesta:     35   -0.007267    0.284297    0.000000
siesta:     36   -0.254490    0.099026    0.000000
siesta:     37    0.157407    0.068490    0.000000
siesta:     38   -0.143315   -0.903218    0.000000
siesta:     39   -3.139004   -1.823830    0.000000
siesta:     40   -0.258568   -0.100713    0.000000
siesta:     41    0.146524   -0.076618    0.000000
siesta:     42   -0.131581    0.896119    0.000000
siesta:     43   -3.128338    1.784724    0.000000
siesta:     44    0.140910   -0.093563    0.000000
siesta:     45    0.139093   -0.089007    0.000000
siesta:     46   -0.835573   -0.340456    0.000000
siesta:     47    0.747457    0.569767    0.000000
siesta:     48   -0.016693    0.252962    0.000000
siesta:     49   -0.171504    0.188988    0.000000
siesta:     50   -0.026507   -0.170291    0.000000
siesta:     51   -0.008012   -0.152987    0.000000
siesta:     52    3.163200   -1.805798    0.000000
siesta:     53    0.142630   -0.906314    0.000000
siesta:     54    3.147638    1.808225    0.000000
siesta:     55   -0.003328    3.630423    0.000000
siesta:     56   -0.721594    0.581187    0.000000
siesta:     57    0.146639    0.895479    0.000000
siesta:     58   -0.149871   -0.077371    0.000000
siesta:     59    0.859097   -0.338641    0.000000
siesta:     60   -0.146344   -0.087867    0.000000
siesta:     61    0.001437   -0.176773    0.000000
siesta:     62    0.202679    0.194993    0.000000
siesta:     63   -0.141081   -0.096847    0.000000
siesta:     64    0.156603    0.092812    0.000000
siesta:     65   -0.221026   -0.109584    0.000000
siesta:     66    0.226875    0.174161    0.000000
siesta:     67   -3.774657   -2.219417    0.000000
siesta:     68    0.007642   -4.263447    0.000000
siesta:     69    3.721984   -2.196661    0.000000
siesta:     70   -3.734276    2.220213    0.000000
siesta:     71   -0.039679    4.305473    0.000000
siesta:     72    3.807280    2.197684    0.000000
siesta: ----------------------------------------
siesta:    Tot    0.195557   -0.242592    0.000000

siesta: Stress tensor (static) (eV/Ang**3):
siesta:    -0.053811   -0.000364    0.000000
siesta:    -0.000364   -0.053048    0.000000
siesta:     0.000000    0.000000   -0.000098

siesta: Cell volume =       1893.226895 Ang**3

siesta: Pressure (static):
siesta:                Solid            Molecule  Units
siesta:           0.00038830          0.00016132  Ry/Bohr**3
siesta:           0.03565219          0.01481179  eV/Ang**3
siesta:          57.12172653         23.73135293  kBar
(Free)E+ p_basis*V_orbitals  =      -11286.964048
(Free)Eharris+ p_basis*V_orbitals  =      -11286.959826

siesta: Electric dipole (a.u.)  =    0.000000    0.000000    0.000000
siesta: Electric dipole (Debye) =    0.000000    0.000000    0.000000

* Maximum dynamic memory allocated : Node    0 =   217 MB
* Maximum dynamic memory allocated : Node    1 =    78 MB
* Maximum dynamic memory allocated : Node    2 =    81 MB
* Maximum dynamic memory allocated : Node    3 =   206 MB
* Maximum dynamic memory allocated : Node    4 =   218 MB
* Maximum dynamic memory allocated : Node    5 =    79 MB
* Maximum dynamic memory allocated : Node    6 =    82 MB
* Maximum dynamic memory allocated : Node    7 =   200 MB

* Maximum memory occured during matrixMtoO                    

timer: CPU execution times:
timer:  Routine       Calls   Time/call    Tot.time        %
timer:  siesta            1    9178.582    9178.582   100.00
timer:  Setup             1       3.145       3.145     0.03
timer:  bands             3     292.328     876.983     9.55
timer:  writewave         1       0.019       0.019     0.00
timer:  KSV_init          1       0.003       0.003     0.00
timer:  IterMD            1    8289.856    8289.856    90.32
timer:  hsparse           1       0.403       0.403     0.00
timer:  overlap           1       5.607       5.607     0.06
timer:  IterSCF           1    8101.539    8101.539    88.27
timer:  kinefsm           2       2.921       5.841     0.06
timer:  nlefsm            2      19.764      39.528     0.43
timer:  DHSCF             2     139.861     279.721     3.05
timer:  DHSCF1            1       1.038       1.038     0.01
timer:  DHSCF2            1      42.757      42.757     0.47
timer:  REORD            18       0.014       0.245     0.00
timer:  POISON            3       3.662      10.987     0.12
timer:  DHSCF3            2      99.969     199.938     2.18
timer:  rhoofd            2      19.009      38.017     0.41
timer:  cellXC            2       3.567       7.134     0.08
timer:  vmat              2      51.131     102.262     1.11
timer:  MolMec            2       0.000       0.000     0.00
timer:  diagon            1    7917.894    7917.894    86.26
timer:  c-eigval        473       7.258    3433.188    37.40
timer:  c-buildHS       473       0.212     100.384     1.09
timer:  cdiag           825       7.378    6086.836    66.32
timer:  cdiag1          825       0.466     384.403     4.19
timer:  cdiag2          825       1.986    1638.217    17.85
timer:  cdiag3          825       4.177    3445.899    37.54
timer:  cdiag4          825       0.212     174.520     1.90
timer:  c-eigvec        352       7.906    2783.058    30.32
timer:  c-buildD        352       7.313    2574.232    28.05
timer:  DHSCF4            1      35.784      35.784     0.39
timer:  dfscf             1      33.228      33.228     0.36
timer:  overfsm           1       0.417       0.417     0.00
timer:  optical           1       7.516       7.516     0.08
  

elaps: ELAPSED times:
elaps:  Routine       Calls   Time/call    Tot.time        %
elaps:  siesta            1    1149.078    1149.078   100.00
elaps:  Setup             1       0.392       0.392     0.03
elaps:  bands             3      36.599     109.798     9.56
elaps:  writewave         1       0.002       0.002     0.00
elaps:  KSV_init          1       0.000       0.000     0.00
elaps:  IterMD            1    1037.871    1037.871    90.32
elaps:  hsparse           1       0.049       0.049     0.00
elaps:  overlap           1       0.524       0.524     0.05
elaps:  IterSCF           1    1014.311    1014.311    88.27
elaps:  kinefsm           2       0.275       0.551     0.05
elaps:  nlefsm            2       2.449       4.898     0.43
elaps:  DHSCF             2      19.241      38.482     3.35
elaps:  DHSCF1            1       0.133       0.133     0.01
elaps:  DHSCF2            1       5.350       5.350     0.47
elaps:  REORD            18       0.002       0.035     0.00
elaps:  POISON            3       0.461       1.382     0.12
elaps:  DHSCF3            2      12.507      25.013     2.18
elaps:  rhoofd            2       4.098       8.196     0.71
elaps:  cellXC            2       0.445       0.890     0.08
elaps:  vmat              2       6.397      12.794     1.11
elaps:  MolMec            2       0.000       0.000     0.00
elaps:  diagon            1     991.375     991.375    86.28
elaps:  c-eigval        473       0.908     429.638    37.39
elaps:  c-buildHS       473       0.028      13.202     1.15
elaps:  cdiag           825       0.906     747.839    65.08
elaps:  cdiag1          825       0.057      47.278     4.11
elaps:  cdiag2          825       0.248     204.977    17.84
elaps:  cdiag3          825       0.523     431.877    37.58
elaps:  cdiag4          825       0.027      22.582     1.97
elaps:  c-eigvec        352       0.954     335.763    29.22
elaps:  c-buildD        352       0.952     335.125    29.16
elaps:  DHSCF4            1       7.959       7.959     0.69
elaps:  dfscf             1       7.473       7.473     0.65
elaps:  overfsm           1       0.052       0.052     0.00
elaps:  optical           1       0.001       0.001     0.00
  
>> End of run:   8-DEC-2015  15:24:47
