Siesta Version:                                        siesta-3.2-pl-3
Architecture  : x86_64-unknown-linux-gnu--unknown
Compiler flags: mpiifort -g -O2 -fPIC -xSSE4.1 -fp-model source -shared-intel 
PARALLEL version

* Running on    8 nodes in parallel
>> Start of run:   3-DEC-2015  16:26:43

                           ***********************       
                           *  WELCOME TO SIESTA  *       
                           ***********************       

reinit: Reading from standard input
************************** Dump of input data file ****************************
#(1) General system descriptors
SystemName            GRP_doping    # Descriptive name of the system
SystemLabel           GRP_doping    # Short name for naming files
%include STRUCT.fdf
%include KPT.fdf
%include BASIS.fdf
#%include TS.fdf # for transiesta calculation
#(4) DFT, Grid, SCF
XC.functional         GGA           # LDA or GGA (default = LDA)
XC.authors            PBE           # CA (Ceperley-Aldr) = PZ
                                    #    (Perdew-Zunger) - LDA - Default
                                    # PW92 (Perdew-Wang-92) - LDA
                                    # PBE (Perdew-Burke-Ernzerhof) - GGA
MeshCutoff            200.000000    Ry      # Default: 50.0 Ry ~ 0.444 Bohr
                                    #         100.0 Ry ~ 0.314 Bohr
MaxSCFIterations      500           # Default: 50
DM.MixingWeight       0.05          # Default: 0.25
DM.NumberPulay        10            # Default: 0
DM.PulayOnFile        F             # SystemLabel.P1, SystemLabel.P2
DM.Tolerance          1.d-4         # Default: 1.d-4
DM.UseSaveDM          .true.        # because of the bug
SCFMustConverge       .true.
NeglNonOverlapInt     F             # Default: F
#(5) Eigenvalue problem: order-N or diagonalization
SolutionMethod        Diagon        # or Transiesta
ElectronicTemperature 300.0 K       # Default: 300.0 K
#(6) Molecular dynamics and relaxations
#MD.TypeOfRun          CG            # Type of dynamics:
#MD.VariableCell       F
#MD.NumCGsteps         0           # 0 for single-point / 100 for gopt
#MD.MaxCGDispl         0.2 Bohr      # Default: 0.2 Bohr
#MD.MaxForceTol        0.02 eV/Ang   # Default: 0.04 eV/Ang
#MD.MaxStressTol       1.0 GPa       # Default: 1.0 GPa
# Geometry Constraints
#%block GeometryConstraints
#	position from 1 to 44
#%endblock GeometryConstraints
************************** End of input data file *****************************

reinit: -----------------------------------------------------------------------
reinit: System Name: GRP_doping
reinit: -----------------------------------------------------------------------
reinit: System Label: GRP_doping                                                  
reinit: -----------------------------------------------------------------------

initatom: Reading input for the pseudopotentials and atomic orbitals ----------
 Species number:            1  Label: B Atomic number:           5
 Species number:            2  Label: C Atomic number:           6
Ground state valence configuration:   2s02  2p01
Reading pseudopotential information in formatted form from B.psf

Valence configuration for pseudopotential generation:
2s( 2.00) rc: 1.74
2p( 1.00) rc: 1.74
3d( 0.00) rc: 1.74
4f( 0.00) rc: 1.74
Ground state valence configuration:   2s02  2p02
Reading pseudopotential information in formatted form from C.psf

Valence configuration for pseudopotential generation:
2s( 2.00) rc: 1.54
2p( 2.00) rc: 1.54
3d( 0.00) rc: 1.54
4f( 0.00) rc: 1.54
For B, standard SIESTA heuristics set lmxkb to 3
 (one more than the basis l, including polarization orbitals).
Use PS.lmax or PS.KBprojectors blocks to override.
For C, standard SIESTA heuristics set lmxkb to 3
 (one more than the basis l, including polarization orbitals).
Use PS.lmax or PS.KBprojectors blocks to override.

<basis_specs>
===============================================================================
B                    Z=   5    Mass=  10.810        Charge= 0.17977+309
Lmxo=1 Lmxkb= 3    BasisType=split      Semic=F
L=0  Nsemic=0  Cnfigmx=2
          n=1  nzeta=2  polorb=0
            splnorm:   0.15000    
               vcte:    0.0000    
               rinn:    0.0000    
                rcs:    0.0000      0.0000    
            lambdas:    1.0000      1.0000    
L=1  Nsemic=0  Cnfigmx=2
          n=1  nzeta=2  polorb=1
            splnorm:   0.15000    
               vcte:    0.0000    
               rinn:    0.0000    
                rcs:    0.0000      0.0000    
            lambdas:    1.0000      1.0000    
-------------------------------------------------------------------------------
L=0  Nkbl=1  erefs: 0.17977+309
L=1  Nkbl=1  erefs: 0.17977+309
L=2  Nkbl=1  erefs: 0.17977+309
L=3  Nkbl=1  erefs: 0.17977+309
===============================================================================
</basis_specs>

atom: Called for B                     (Z =   5)

read_vps: Pseudopotential generation method:
read_vps: ATM3      Troullier-Martins                       
Total valence charge:    3.00000

read_vps: Pseudopotential includes a core correction:
read_vps: Pseudo-core for xc-correction

xc_check: Exchange-correlation functional:
xc_check: GGA Perdew, Burke & Ernzerhof 1996
V l=0 = -2*Zval/r beyond r=  1.7165
V l=1 = -2*Zval/r beyond r=  1.7165
V l=2 = -2*Zval/r beyond r=  1.7165
V l=3 = -2*Zval/r beyond r=  1.6951
All V_l potentials equal beyond r=  1.7165
This should be close to max(r_c) in ps generation
All pots = -2*Zval/r beyond r=  1.7165

VLOCAL1: 99.0% of the norm of Vloc inside     14.733 Ry
VLOCAL1: 99.9% of the norm of Vloc inside     33.577 Ry
atom: Maximum radius for 4*pi*r*r*local-pseudopot. charge    2.04484
atom: Maximum radius for r*vlocal+2*Zval:    1.75994
GHOST: No ghost state for L =  0
GHOST: No ghost state for L =  1
GHOST: No ghost state for L =  2
GHOST: No ghost state for L =  3

KBgen: Kleinman-Bylander projectors: 
   l= 0   rc=  1.897051   el= -0.693730   Ekb=  4.595746   kbcos=  0.286105
   l= 1   rc=  1.920920   el= -0.265236   Ekb= -2.350715   kbcos= -0.315747
   l= 2   rc=  2.044840   el=  0.002055   Ekb= -0.690767   kbcos= -0.013822
   l= 3   rc=  2.149707   el=  0.003188   Ekb= -0.315358   kbcos= -0.002055

KBgen: Total number of  Kleinman-Bylander projectors:   16
atom: -------------------------------------------------------------------------

atom: SANKEY-TYPE ORBITALS:
atom: Selected multiple-zeta basis: split     

SPLIT: Orbitals with angular momentum L= 0

SPLIT: Basis orbitals for state 2s

SPLIT: PAO cut-off radius determined from an
SPLIT: energy shift=  0.007350 Ry

   izeta = 1
                 lambda =    1.000000
                     rc =    5.422032
                 energy =   -0.686029
                kinetic =    0.576707
    potential(screened) =   -1.262736
       potential(ionic) =   -3.271094

   izeta = 2
                 rmatch =    4.222573
              splitnorm =    0.150000
                 energy =   -0.602132
                kinetic =    0.858975
    potential(screened) =   -1.461107
       potential(ionic) =   -3.582536

SPLIT: Orbitals with angular momentum L= 1

SPLIT: Basis orbitals for state 2p

SPLIT: PAO cut-off radius determined from an
SPLIT: energy shift=  0.007350 Ry

   izeta = 1
                 lambda =    1.000000
                     rc =    6.790259
                 energy =   -0.258578
                kinetic =    1.481412
    potential(screened) =   -1.739989
       potential(ionic) =   -3.657461

   izeta = 2
                 rmatch =    4.608740
              splitnorm =    0.150000
                 energy =   -0.173757
                kinetic =    2.186690
    potential(screened) =   -2.360447
       potential(ionic) =   -4.464260

POLgen: Perturbative polarization orbital with L=  2

POLgen: Polarization orbital for state 2p

   izeta = 1
                     rc =    6.790259
                 energy =    0.684082
                kinetic =    1.471481
    potential(screened) =   -0.787399
       potential(ionic) =   -2.406985
atom: Total number of Sankey-type orbitals: 13

atm_pop: Valence configuration (for local Pseudopot. screening):
 2s( 2.00)                                                            
 2p( 1.00)                                                            
Vna: chval, zval:    3.00000   3.00000

Vna:  Cut-off radius for the neutral-atom potential:   6.790259
comcore: Pseudo-core radius Rcore=  2.122997

atom: _________________________________________________________________________

<basis_specs>
===============================================================================
C                    Z=   6    Mass=  12.010        Charge= 0.17977+309
Lmxo=1 Lmxkb= 3    BasisType=split      Semic=F
L=0  Nsemic=0  Cnfigmx=2
          n=1  nzeta=2  polorb=0
            splnorm:   0.15000    
               vcte:    0.0000    
               rinn:    0.0000    
                rcs:    0.0000      0.0000    
            lambdas:    1.0000      1.0000    
L=1  Nsemic=0  Cnfigmx=2
          n=1  nzeta=2  polorb=1
            splnorm:   0.15000    
               vcte:    0.0000    
               rinn:    0.0000    
                rcs:    0.0000      0.0000    
            lambdas:    1.0000      1.0000    
-------------------------------------------------------------------------------
L=0  Nkbl=1  erefs: 0.17977+309
L=1  Nkbl=1  erefs: 0.17977+309
L=2  Nkbl=1  erefs: 0.17977+309
L=3  Nkbl=1  erefs: 0.17977+309
===============================================================================
</basis_specs>

atom: Called for C                     (Z =   6)

read_vps: Pseudopotential generation method:
read_vps: ATM3      Troullier-Martins                       
Total valence charge:    4.00000

read_vps: Pseudopotential includes a core correction:
read_vps: Pseudo-core for xc-correction

xc_check: Exchange-correlation functional:
xc_check: GGA Perdew, Burke & Ernzerhof 1996
V l=0 = -2*Zval/r beyond r=  1.5227
V l=1 = -2*Zval/r beyond r=  1.5227
V l=2 = -2*Zval/r beyond r=  1.5227
V l=3 = -2*Zval/r beyond r=  1.5038
All V_l potentials equal beyond r=  1.5227
This should be close to max(r_c) in ps generation
All pots = -2*Zval/r beyond r=  1.5227

VLOCAL1: 99.0% of the norm of Vloc inside     18.722 Ry
VLOCAL1: 99.9% of the norm of Vloc inside     42.668 Ry
atom: Maximum radius for 4*pi*r*r*local-pseudopot. charge    1.83678
atom: Maximum radius for r*vlocal+2*Zval:    1.58088
GHOST: No ghost state for L =  0
GHOST: No ghost state for L =  1
GHOST: No ghost state for L =  2
GHOST: No ghost state for L =  3

KBgen: Kleinman-Bylander projectors: 
   l= 0   rc=  1.704034   el= -1.009801   Ekb=  5.335044   kbcos=  0.316824
   l= 1   rc=  1.704034   el= -0.388707   Ekb= -3.785862   kbcos= -0.366464
   l= 2   rc=  1.791422   el=  0.001971   Ekb= -0.970471   kbcos= -0.009212
   l= 3   rc=  1.859892   el=  0.003065   Ekb= -0.399525   kbcos= -0.001223

KBgen: Total number of  Kleinman-Bylander projectors:   16
atom: -------------------------------------------------------------------------

atom: SANKEY-TYPE ORBITALS:
atom: Selected multiple-zeta basis: split     

SPLIT: Orbitals with angular momentum L= 0

SPLIT: Basis orbitals for state 2s

SPLIT: PAO cut-off radius determined from an
SPLIT: energy shift=  0.007350 Ry

   izeta = 1
                 lambda =    1.000000
                     rc =    4.632753
                 energy =   -1.002270
                kinetic =    0.855760
    potential(screened) =   -1.858031
       potential(ionic) =   -5.417575

   izeta = 2
                 rmatch =    3.431921
              splitnorm =    0.150000
                 energy =   -0.867111
                kinetic =    1.300804
    potential(screened) =   -2.167915
       potential(ionic) =   -5.962684

SPLIT: Orbitals with angular momentum L= 1

SPLIT: Basis orbitals for state 2p

SPLIT: PAO cut-off radius determined from an
SPLIT: energy shift=  0.007350 Ry

   izeta = 1
                 lambda =    1.000000
                     rc =    5.658549
                 energy =   -0.381140
                kinetic =    2.399701
    potential(screened) =   -2.780841
       potential(ionic) =   -6.206085

   izeta = 2
                 rmatch =    3.653288
              splitnorm =    0.150000
                 energy =   -0.249149
                kinetic =    3.542762
    potential(screened) =   -3.791911
       potential(ionic) =   -7.581078

POLgen: Perturbative polarization orbital with L=  2

POLgen: Polarization orbital for state 2p

   izeta = 1
                     rc =    5.658549
                 energy =    1.109913
                kinetic =    2.304789
    potential(screened) =   -1.194876
       potential(ionic) =   -4.013592
atom: Total number of Sankey-type orbitals: 13

atm_pop: Valence configuration (for local Pseudopot. screening):
 2s( 2.00)                                                            
 2p( 2.00)                                                            
Vna: chval, zval:    4.00000   4.00000

Vna:  Cut-off radius for the neutral-atom potential:   5.658549
comcore: Pseudo-core radius Rcore=  1.791422

atom: _________________________________________________________________________

prinput: Basis input ----------------------------------------------------------

PAO.BasisType split     

%block ChemicalSpeciesLabel
    1    5 B                       # Species index, atomic number, species label
    2    6 C                       # Species index, atomic number, species label
%endblock ChemicalSpeciesLabel

%block PAO.Basis                 # Define Basis set
B                     2                    # Species label, number of l-shells
 n=2   0   2                         # n, l, Nzeta 
   5.422      4.223   
   1.000      1.000   
 n=2   1   2 P   1                   # n, l, Nzeta, Polarization, NzetaPol
   6.790      4.609   
   1.000      1.000   
C                     2                    # Species label, number of l-shells
 n=2   0   2                         # n, l, Nzeta 
   4.633      3.432   
   1.000      1.000   
 n=2   1   2 P   1                   # n, l, Nzeta, Polarization, NzetaPol
   5.659      3.653   
   1.000      1.000   
%endblock PAO.Basis

prinput: ----------------------------------------------------------------------

coor:   Atomic-coordinates input format  =     Cartesian coordinates
coor:                                          (in Angstroms)

siesta: Atomic coordinates (Bohr) and species
siesta:      2.23554   1.32097   0.00000  1        1
siesta:     32.50291  13.41944   0.00000  1        2
siesta:     27.84639   5.35379   0.00000  1        3
siesta:     27.84714  21.48508   0.00000  1        4
siesta:     11.54782   1.32097   0.00000  1        5
siesta:     20.86199   1.32097   0.00000  1        6
siesta:      9.21994   5.35379   0.00000  1        7
siesta:     18.53411   5.35379   0.00000  1        8
siesta:      6.89205   9.38661   0.00000  1        9
siesta:     16.20434   9.38661   0.00000  1       10
siesta:     13.87645  13.41944   0.00000  1       11
siesta:     11.54857  17.45226   0.00000  1       12
siesta:     18.53486  21.48508   0.00000  1       13
siesta:     25.51851   9.38661   0.00000  1       14
siesta:     23.19063  13.41944   0.00000  1       15
siesta:     20.86274  17.45226   0.00000  1       16
siesta:     30.17503  17.45226   0.00000  1       17
siesta:     37.16131  21.48508   0.00000  1       18
siesta:      4.56367   2.66461   0.00000  2       19
siesta:     32.50328  21.48508   0.00000  2       20
siesta:     34.83141  22.82873   0.00000  2       21
siesta:     34.83116  17.45226   0.00000  2       22
siesta:     37.15930  18.79590   0.00000  2       23
siesta:     34.83104  14.76308   0.00000  2       24
siesta:     30.17465   9.38661   0.00000  2       25
siesta:     32.50278  10.73026   0.00000  2       26
siesta:     30.17453   6.69743   0.00000  2       27
siesta:     30.17527  22.82873   0.00000  2       28
siesta:      6.89168   1.32097   0.00000  2       29
siesta:      9.21981   2.66461   0.00000  2       30
siesta:     13.87595   2.66461   0.00000  2       31
siesta:     16.20396   1.32097   0.00000  2       32
siesta:     18.53210   2.66461   0.00000  2       33
siesta:     23.19013   2.66461   0.00000  2       34
siesta:     25.51813   1.32097   0.00000  2       35
siesta:     27.84627   2.66461   0.00000  2       36
siesta:      4.56380   5.35379   0.00000  2       37
siesta:      6.89193   6.69743   0.00000  2       38
siesta:     11.54807   6.69743   0.00000  2       39
siesta:     13.87608   5.35379   0.00000  2       40
siesta:     16.20421   6.69743   0.00000  2       41
siesta:     20.86224   6.69743   0.00000  2       42
siesta:     23.19025   5.35379   0.00000  2       43
siesta:     25.51838   6.69743   0.00000  2       44
siesta:      9.22019  10.73026   0.00000  2       45
siesta:     11.54820   9.38661   0.00000  2       46
siesta:     13.87633  10.73026   0.00000  2       47
siesta:     18.53247  10.73026   0.00000  2       48
siesta:     20.86237   9.38661   0.00000  2       49
siesta:     23.19050  10.73026   0.00000  2       50
siesta:      9.22031  13.41944   0.00000  2       51
siesta:     11.54845  14.76308   0.00000  2       52
siesta:     16.20459  14.76308   0.00000  2       53
siesta:     18.53448  13.41944   0.00000  2       54
siesta:     20.86262  14.76308   0.00000  2       55
siesta:     13.87670  18.79590   0.00000  2       56
siesta:     16.20471  17.45226   0.00000  2       57
siesta:     18.53284  18.79590   0.00000  2       58
siesta:     13.87683  21.48508   0.00000  2       59
siesta:     16.20496  22.82873   0.00000  2       60
siesta:     20.86299  22.82873   0.00000  2       61
siesta:     27.84664  10.73026   0.00000  2       62
siesta:     25.51876  14.76308   0.00000  2       63
siesta:     23.19088  18.79590   0.00000  2       64
siesta:     27.84677  13.41944   0.00000  2       65
siesta:     30.17490  14.76308   0.00000  2       66
siesta:     25.51888  17.45226   0.00000  2       67
siesta:     27.84702  18.79590   0.00000  2       68
siesta:     23.19100  21.48508   0.00000  2       69
siesta:     25.51913  22.82873   0.00000  2       70
siesta:     32.50316  18.79590   0.00000  2       71
siesta:     39.48945  22.82873   0.00000  2       72

siesta: System type = slab      

initatomlists: Number of atoms, orbitals, and projectors:     72   936  1152

siesta: ******************** Simulation parameters ****************************
siesta:
siesta: The following are some of the parameters of the simulation.
siesta: A complete list of the parameters used, including default values,
siesta: can be found in file out.fdf
siesta:
redata: Non-Collinear-spin run           =     F
redata: SpinPolarized (Up/Down) run      =     F
redata: Number of spin components        =     1
redata: Long output                      =     F
redata: Number of Atomic Species         =        2
redata: Charge density info will appear in .RHO file
redata: Write Mulliken Pop.              =     NO
redata: Mesh Cutoff                      =   200.0000  Ry
redata: Net charge of the system         =     0.0000 |e|
redata: Max. number of SCF Iter          =      500
redata: SCF convergence failure will abort job
redata: Performing Pulay mixing using    =    10 iterations
redata: Mix DM in first SCF step ?       =     F
redata: Write Pulay info on disk?        =     F
redata: Discard 1st Pulay DM after  kick =     F
redata: New DM Mixing Weight             =     0.0500
redata: New DM Occupancy tolerance       = 0.000000000001
redata: No kicks to SCF
redata: DM Mixing Weight for Kicks       =     0.5000
redata: DM Tolerance for SCF             =     0.000100
redata: Require Energy convergence for SCF =     F
redata: DM Energy tolerance for SCF      =     0.000100 eV
redata: Require Harris convergence for SCF =     F
redata: DM Harris energy tolerance for SCF =     0.000100 eV
redata: Using Saved Data (generic)   =     F
redata: Use continuation files for DM    =     T
redata: Neglect nonoverlap interactions  =     F
redata: Method of Calculation            =     Diagonalization
redata: Divide and Conquer               =     T
redata: Electronic Temperature           =     0.0019  Ry
redata: Fix the spin of the system       =     F
redata: Dynamics option                  =     Verlet MD run
redata: Initial MD time step             =        1
redata:   Final MD time step             =        1
redata: Length of MD time step           =     1.0000  fs
redata: Initial Temperature of MD run    =     0.0000  K
redata: Perform a MD quench              =     F
redata: ***********************************************************************
Total number of electrons:   270.000000
Total ionic charge:   270.000000

* ProcessorY, Blocksize:    2  24

k-point displ. along   1 input, could be:     0.00    0.50
k-point displ. along   2 input, could be:     0.00    0.50
 Kpoints in:          364 . Kpoints trimmed:          352

siesta: k-grid: Number of k-points =   352
siesta: k-grid: Cutoff (effective) =     5.000 Ang
siesta: k-grid: Supercell and displacements
siesta: k-grid:   26   0   0      0.000
siesta: k-grid:    0  26   0      0.000
siesta: k-grid:    0   0   1      0.000
Naive supercell factors:     2    2    2

superc: Internal auxiliary supercell:     2 x     2 x     2  =       8
superc: Number of atoms, orbitals, and projectors:    576   7488   9216

* Maximum dynamic memory allocated =     6 MB

siesta:                 ==============================
                            Begin MD step =      1
                        ==============================

superc: Internal auxiliary supercell:     2 x     2 x     2  =       8
superc: Number of atoms, orbitals, and projectors:    576   7488   9216

outcell: Unit cell vectors (Ang):
       14.785000    0.000000    0.000000
        7.393000   12.805052    0.000000
        0.000000    0.000000   10.000000

outcell: Cell vector modules (Ang)   :   14.785000   14.786000   10.000000
outcell: Cell angles (23,13,12) (deg):     90.0000     90.0000     60.0000
outcell: Cell volume (Ang**3)        :   1893.2269
New_DM. Step:     1
Initializing Density Matrix...

InitMesh: MESH =   120 x   120 x    90 =     1296000
InitMesh: Mesh cutoff (required, used) =   200.000   223.865 Ry

* Maximum dynamic memory allocated =   219 MB

stepf: Fermi-Dirac step function

siesta: Program's energy decomposition (eV):
siesta: Ebs     =     -4338.755735
siesta: Eions   =     16097.990269
siesta: Ena     =      3563.263290
siesta: Ekin    =      5428.893495
siesta: Enl     =       373.631654
siesta: DEna    =        -0.000007
siesta: DUscf   =         0.000000
siesta: DUext   =         0.000000
siesta: Exc     =     -3983.439843
siesta: eta*DQ  =         0.000000
siesta: Emadel  =         0.000000
siesta: Emeta   =         0.000000
siesta: Emolmec =         0.000000
siesta: Ekinion =         0.000000
siesta: Eharris =    -10638.832077
siesta: Etot    =    -10715.641680
siesta: FreeEng =    -10715.641680

siesta: iscf   Eharris(eV)      E_KS(eV)   FreeEng(eV)   dDmax  Ef(eV)
siesta:    1   -10638.8321   -10715.6417   -10715.6417  1.9038 -8.7052
timer: Routine,Calls,Time,% = IterSCF        1    6892.499  99.82
elaps: Routine,Calls,Wall,% = IterSCF        1     862.681  99.82
siesta:    2   -10648.1422   -10573.5759   -10573.6006  0.8050 -4.2440
siesta:    3   -10605.3264   -10636.8340   -10636.8686  0.6982 -6.1362
siesta:    4   -10605.2119   -10636.8352   -10636.8900  0.6975 -6.1394
siesta:    5   -10599.5380   -10608.3401   -10608.3953  0.2583 -5.8049
siesta:    6   -10601.9719   -10603.2209   -10603.2764  0.1513 -6.0105
siesta:    7   -10600.8959   -10602.0175   -10602.0612  0.1186 -6.0331
siesta:    8   -10599.3123   -10597.4174   -10597.4622  0.0122 -6.1469
siesta:    9   -10599.2714   -10597.5948   -10597.6519  0.0113 -6.1483
siesta:   10   -10599.1218   -10598.1023   -10598.1574  0.0062 -6.1329
siesta:   11   -10599.1206   -10598.3658   -10598.4193  0.0050 -6.1266
siesta:   12   -10599.1147   -10598.7365   -10598.7897  0.0031 -6.1195
siesta:   13   -10599.1116   -10599.0239   -10599.0776  0.0013 -6.1142
siesta:   14   -10599.1114   -10599.0996   -10599.1538  0.0007 -6.1139
siesta:   15   -10599.1112   -10599.1341   -10599.1884  0.0005 -6.1148
siesta:   16   -10599.1112   -10599.1369   -10599.1913  0.0003 -6.1156
siesta:   17   -10599.1112   -10599.1259   -10599.1803  0.0001 -6.1154
siesta:   18   -10599.1112   -10599.1106   -10599.1650  0.0001 -6.1154
siesta:   19   -10599.1112   -10599.1120   -10599.1664  0.0001 -6.1153

siesta: E_KS(eV) =           -10599.1110

siesta: E_KS - E_eggbox =    -10599.1110

siesta: Atomic forces (eV/Ang):
----------------------------------------
   Tot    0.070131    0.110181    0.000000
----------------------------------------
   Max    3.734579
   Res    1.577450    sqrt( Sum f_i^2 / 3N )
----------------------------------------
   Max    3.734579    constrained

Stress-tensor-Voigt (kbar):     -205.71     -189.97       -0.50      -12.96        0.00        0.00
(Free)E + p*V (eV/cell)   -10443.1175
Target enthalpy (eV/cell)   -10599.1654

siesta: Stress tensor (static) (eV/Ang**3):
        -0.128393   -0.008088    0.000000
        -0.008088   -0.118566    0.000000
         0.000000    0.000000   -0.000314

siesta: Pressure (static):        132.05970018  kBar

siesta: Stress tensor (total) (eV/Ang**3):
        -0.128393   -0.008088    0.000000
        -0.008088   -0.118566    0.000000
         0.000000    0.000000   -0.000314

siesta: Pressure (total):        132.05970018  kBar

siesta: Temp_ion =       0.000 K

* Maximum dynamic memory allocated =   234 MB

siesta: Program's energy decomposition (eV):
siesta: Ebs     =     -3467.011982
siesta: Eions   =     16097.990269
siesta: Ena     =      3563.263290
siesta: Ekin    =      6978.855873
siesta: Enl     =      -593.468425
siesta: DEna    =      -388.972408
siesta: DUscf   =        45.023725
siesta: DUext   =         0.000000
siesta: Exc     =     -4105.822817
siesta: eta*DQ  =         0.000000
siesta: Emadel  =         0.000000
siesta: Emeta   =         0.000000
siesta: Emolmec =         0.000000
siesta: Ekinion =         0.000000
siesta: Eharris =    -10599.111175
siesta: Etot    =    -10599.111032
siesta: FreeEng =    -10599.165398

siesta: Final energy (eV):
siesta:  Band Struct. =   -3467.011982
siesta:       Kinetic =    6978.855873
siesta:       Hartree =   20276.116630
siesta:    Ext. field =       0.000000
siesta:   Exch.-corr. =   -4105.822817
siesta:  Ion-electron =  -46826.086141
siesta:       Ion-ion =   13077.825422
siesta:       Ekinion =       0.000000
siesta:         Total =  -10599.111032

siesta: Atomic forces (eV/Ang):
siesta:      1   -0.233922   -0.142104    0.000000
siesta:      2   -0.217584   -0.125643    0.000000
siesta:      3   -0.215731   -0.124750    0.000000
siesta:      4   -0.217515   -0.123593    0.000000
siesta:      5   -0.217379   -0.149899    0.000000
siesta:      6   -0.249918   -0.134327    0.000000
siesta:      7   -0.219356   -0.125645    0.000000
siesta:      8   -0.251636   -0.109343    0.000000
siesta:      9   -0.234620   -0.118054    0.000000
siesta:     10   -0.212389   -0.124018    0.000000
siesta:     11   -0.213765   -0.125690    0.000000
siesta:     12   -0.231245   -0.116969    0.000000
siesta:     13   -0.252813   -0.108505    0.000000
siesta:     14   -0.217553   -0.125263    0.000000
siesta:     15   -0.215930   -0.125692    0.000000
siesta:     16   -0.249191   -0.110140    0.000000
siesta:     17   -0.218815   -0.124207    0.000000
siesta:     18   -0.253168   -0.107335    0.000000
siesta:     19    2.581257    1.483688    0.000000
siesta:     20    1.371757    0.789683    0.000000
siesta:     21   -3.694353   -2.131256    0.000000
siesta:     22    1.369655    0.786837    0.000000
siesta:     23   -3.710567   -2.148574    0.000000
siesta:     24    2.596106    1.483148    0.000000
siesta:     25    1.368733    0.783692    0.000000
siesta:     26   -3.712102   -2.148780    0.000000
siesta:     27    2.595434    1.482950    0.000000
siesta:     28    2.578797    1.508025    0.000000
siesta:     29    1.370028    0.766105    0.000000
siesta:     30   -3.728745   -2.144495    0.000000
siesta:     31    2.583583    1.484528    0.000000
siesta:     32    1.374569    0.768059    0.000000
siesta:     33   -3.694832   -2.160917    0.000000
siesta:     34    2.579526    1.483857    0.000000
siesta:     35    1.372296    0.766136    0.000000
siesta:     36   -3.716766   -2.151804    0.000000
siesta:     37    1.354873    0.789063    0.000000
siesta:     38   -3.729897   -2.141146    0.000000
siesta:     39    2.582690    1.488773    0.000000
siesta:     40    1.372223    0.783892    0.000000
siesta:     41   -3.696954   -2.157468    0.000000
siesta:     42    2.577886    1.489999    0.000000
siesta:     43    1.369184    0.783613    0.000000
siesta:     44   -3.729789   -2.143214    0.000000
siesta:     45    2.581428    1.489793    0.000000
siesta:     46    1.367720    0.784502    0.000000
siesta:     47   -3.730404   -2.141757    0.000000
siesta:     48    2.619214    1.480905    0.000000
siesta:     49    1.340931    0.790564    0.000000
siesta:     50   -3.734579   -2.141708    0.000000
siesta:     51    1.355649    0.789324    0.000000
siesta:     52   -3.732442   -2.141607    0.000000
siesta:     53    2.610828    1.480340    0.000000
siesta:     54    1.331748    0.792544    0.000000
siesta:     55   -3.734264   -2.142802    0.000000
siesta:     56    2.579931    1.487482    0.000000
siesta:     57    1.370999    0.784896    0.000000
siesta:     58   -3.691921   -2.156374    0.000000
siesta:     59    1.386384    0.783315    0.000000
siesta:     60   -3.690566   -2.131440    0.000000
siesta:     61    2.575186    1.506257    0.000000
siesta:     62    2.582404    1.488277    0.000000
siesta:     63    2.582785    1.487868    0.000000
siesta:     64    2.579252    1.488689    0.000000
siesta:     65    1.366949    0.784934    0.000000
siesta:     66   -3.727377   -2.141660    0.000000
siesta:     67    1.366421    0.784725    0.000000
siesta:     68   -3.727682   -2.140918    0.000000
siesta:     69    1.367235    0.786884    0.000000
siesta:     70   -3.728594   -2.116105    0.000000
siesta:     71    2.581968    1.487446    0.000000
siesta:     72    2.558868    1.512588    0.000000
siesta: ----------------------------------------
siesta:    Tot    0.070131    0.110181    0.000000

siesta: Stress tensor (static) (eV/Ang**3):
siesta:    -0.128393   -0.008088    0.000000
siesta:    -0.008088   -0.118566    0.000000
siesta:     0.000000    0.000000   -0.000314

siesta: Cell volume =       1893.226895 Ang**3

siesta: Pressure (static):
siesta:                Solid            Molecule  Units
siesta:           0.00089771          0.00095875  Ry/Bohr**3
siesta:           0.08242429          0.08802942  eV/Ang**3
siesta:         132.05970018        141.04020151  kBar
(Free)E+ p_basis*V_orbitals  =      -10562.740619
(Free)Eharris+ p_basis*V_orbitals  =      -10562.739765

siesta: Electric dipole (a.u.)  =    0.000000    0.000000    0.000000
siesta: Electric dipole (Debye) =    0.000000    0.000000    0.000000

* Maximum dynamic memory allocated : Node    0 =   234 MB
* Maximum dynamic memory allocated : Node    1 =    85 MB
* Maximum dynamic memory allocated : Node    2 =    87 MB
* Maximum dynamic memory allocated : Node    3 =   221 MB
* Maximum dynamic memory allocated : Node    4 =   233 MB
* Maximum dynamic memory allocated : Node    5 =    84 MB
* Maximum dynamic memory allocated : Node    6 =    87 MB
* Maximum dynamic memory allocated : Node    7 =   215 MB

* Maximum memory occured during matrixMtoO                    

timer: CPU execution times:
timer:  Routine       Calls   Time/call    Tot.time        %
timer:  siesta            1  129721.836  129721.836   100.00
timer:  Setup             1       3.784       3.784     0.00
timer:  bands             1       0.019       0.019     0.00
timer:  writewave         1       0.039       0.039     0.00
timer:  KSV_init          1       0.007       0.007     0.00
timer:  IterMD            1  129710.181  129710.181    99.99
timer:  hsparse           1       0.391       0.391     0.00
timer:  overlap           1       7.757       7.757     0.01
timer:  IterSCF          19    6815.579  129495.996    99.83
timer:  kinefsm           2       4.012       8.025     0.01
timer:  nlefsm            2      21.185      42.370     0.03
timer:  DHSCF            20     122.739    2454.777     1.89
timer:  DHSCF1            1       0.994       0.994     0.00
timer:  DHSCF2            1      44.116      44.116     0.03
timer:  REORD           162       0.010       1.635     0.00
timer:  POISON           21       2.250      47.241     0.04
timer:  DHSCF3           20     118.378    2367.552     1.83
timer:  rhoofd           20      23.036     460.728     0.36
timer:  cellXC           20       3.589      71.771     0.06
timer:  vmat             20      58.440    1168.796     0.90
timer:  MolMec            2       0.000       0.001     0.00
timer:  diagon           19    6690.819  127125.568    98.00
timer:  c-eigval       6688       6.696   44786.095    34.52
timer:  c-buildHS      6688       0.125     839.151     0.65
timer:  cdiag         13376       6.900   92293.719    71.15
timer:  cdiag1        13376       0.428    5725.455     4.41
timer:  cdiag2        13376       1.915   25615.991    19.75
timer:  cdiag3        13376       3.950   52839.738    40.73
timer:  cdiag4        13376       0.228    3045.364     2.35
timer:  c-eigvec       6688       7.306   48862.551    37.67
timer:  c-buildD       6688       4.997   33421.393    25.76
timer:  DHSCF4            1      40.995      40.995     0.03
timer:  dfscf             1      38.367      38.367     0.03
timer:  overfsm           1       0.458       0.458     0.00
timer:  optical           1       6.922       6.922     0.01
  

elaps: ELAPSED times:
elaps:  Routine       Calls   Time/call    Tot.time        %
elaps:  siesta            1   16234.086   16234.086   100.00
elaps:  Setup             1       0.489       0.489     0.00
elaps:  bands             1       0.002       0.002     0.00
elaps:  writewave         1       0.006       0.006     0.00
elaps:  KSV_init          1       0.001       0.001     0.00
elaps:  IterMD            1   16232.605   16232.605    99.99
elaps:  hsparse           1       0.049       0.049     0.00
elaps:  overlap           1       0.974       0.974     0.01
elaps:  IterSCF          19     852.945   16205.956    99.83
elaps:  kinefsm           2       0.506       1.013     0.01
elaps:  nlefsm            2       2.735       5.471     0.03
elaps:  DHSCF            20      15.551     311.020     1.92
elaps:  DHSCF1            1       0.127       0.127     0.00
elaps:  DHSCF2            1       5.517       5.517     0.03
elaps:  REORD           162       0.001       0.220     0.00
elaps:  POISON           21       0.281       5.902     0.04
elaps:  DHSCF3           20      14.809     296.184     1.82
elaps:  rhoofd           20       4.783      95.653     0.59
elaps:  cellXC           20       0.448       8.962     0.06
elaps:  vmat             20       7.311     146.216     0.90
elaps:  MolMec            2       0.000       0.000     0.00
elaps:  diagon           19     837.344   15909.537    98.00
elaps:  c-eigval       6688       0.838    5603.450    34.52
elaps:  c-buildHS      6688       0.017     114.464     0.71
elaps:  cdiag         13376       0.849   11359.952    69.98
elaps:  cdiag1        13376       0.053     712.842     4.39
elaps:  cdiag2        13376       0.240    3205.179    19.74
elaps:  cdiag3        13376       0.495    6619.981    40.78
elaps:  cdiag4        13376       0.029     382.214     2.35
elaps:  c-eigvec       6688       0.889    5948.631    36.64
elaps:  c-buildD       6688       0.650    4349.803    26.79
elaps:  DHSCF4            1       9.044       9.044     0.06
elaps:  dfscf             1       8.537       8.537     0.05
elaps:  overfsm           1       0.060       0.060     0.00
elaps:  optical           1       0.001       0.001     0.00
  
>> End of run:   3-DEC-2015  20:57:17
