Siesta Version:                                        siesta-3.2-pl-3
Architecture  : x86_64-unknown-linux-gnu--unknown
Compiler flags: mpiifort -g -O2 -fPIC -xSSE4.1 -fp-model source -shared-intel 
PARALLEL version

* Running on    8 nodes in parallel
>> Start of run:  28-NOV-2015  13:20:15

                           ***********************       
                           *  WELCOME TO SIESTA  *       
                           ***********************       

reinit: Reading from standard input
************************** Dump of input data file ****************************
#(1) General system descriptors
SystemName            GRP_doping    # Descriptive name of the system
SystemLabel           GRP_doping    # Short name for naming files
%include STRUCT.fdf
%include KPT.fdf
%include BASIS.fdf
#%include TS.fdf # for transiesta calculation
#(4) DFT, Grid, SCF
XC.functional         GGA           # LDA or GGA (default = LDA)
XC.authors            PBE           # CA (Ceperley-Aldr) = PZ
                                    #    (Perdew-Zunger) - LDA - Default
                                    # PW92 (Perdew-Wang-92) - LDA
                                    # PBE (Perdew-Burke-Ernzerhof) - GGA
MeshCutoff            200.000000    Ry      # Default: 50.0 Ry ~ 0.444 Bohr
                                    #         100.0 Ry ~ 0.314 Bohr
MaxSCFIterations      500           # Default: 50
DM.MixingWeight       0.05          # Default: 0.25
DM.NumberPulay        10            # Default: 0
DM.PulayOnFile        F             # SystemLabel.P1, SystemLabel.P2
DM.Tolerance          1.d-4         # Default: 1.d-4
DM.UseSaveDM          .true.        # because of the bug
SCFMustConverge       .true.
NeglNonOverlapInt     F             # Default: F
#(5) Eigenvalue problem: order-N or diagonalization
SolutionMethod        Diagon        # or Transiesta
ElectronicTemperature 300.0 K       # Default: 300.0 K
#(6) Molecular dynamics and relaxations
#MD.TypeOfRun          CG            # Type of dynamics:
#MD.VariableCell       F
#MD.NumCGsteps         0           # 0 for single-point / 100 for gopt
#MD.MaxCGDispl         0.2 Bohr      # Default: 0.2 Bohr
#MD.MaxForceTol        0.02 eV/Ang   # Default: 0.04 eV/Ang
#MD.MaxStressTol       1.0 GPa       # Default: 1.0 GPa
# Geometry Constraints
#%block GeometryConstraints
#	position from 1 to 44
#%endblock GeometryConstraints
************************** End of input data file *****************************

reinit: -----------------------------------------------------------------------
reinit: System Name: GRP_doping
reinit: -----------------------------------------------------------------------
reinit: System Label: GRP_doping                                                  
reinit: -----------------------------------------------------------------------

initatom: Reading input for the pseudopotentials and atomic orbitals ----------
 Species number:            1  Label: C Atomic number:           6
 Species number:            2  Label: B Atomic number:           5
Ground state valence configuration:   2s02  2p02
Reading pseudopotential information in formatted form from C.psf

Valence configuration for pseudopotential generation:
2s( 2.00) rc: 1.54
2p( 2.00) rc: 1.54
3d( 0.00) rc: 1.54
4f( 0.00) rc: 1.54
Ground state valence configuration:   2s02  2p01
Reading pseudopotential information in formatted form from B.psf

Valence configuration for pseudopotential generation:
2s( 2.00) rc: 1.74
2p( 1.00) rc: 1.74
3d( 0.00) rc: 1.74
4f( 0.00) rc: 1.74
For C, standard SIESTA heuristics set lmxkb to 3
 (one more than the basis l, including polarization orbitals).
Use PS.lmax or PS.KBprojectors blocks to override.
For B, standard SIESTA heuristics set lmxkb to 3
 (one more than the basis l, including polarization orbitals).
Use PS.lmax or PS.KBprojectors blocks to override.

<basis_specs>
===============================================================================
C                    Z=   6    Mass=  12.010        Charge= 0.17977+309
Lmxo=1 Lmxkb= 3    BasisType=split      Semic=F
L=0  Nsemic=0  Cnfigmx=2
          n=1  nzeta=2  polorb=0
            splnorm:   0.15000    
               vcte:    0.0000    
               rinn:    0.0000    
                rcs:    0.0000      0.0000    
            lambdas:    1.0000      1.0000    
L=1  Nsemic=0  Cnfigmx=2
          n=1  nzeta=2  polorb=1
            splnorm:   0.15000    
               vcte:    0.0000    
               rinn:    0.0000    
                rcs:    0.0000      0.0000    
            lambdas:    1.0000      1.0000    
-------------------------------------------------------------------------------
L=0  Nkbl=1  erefs: 0.17977+309
L=1  Nkbl=1  erefs: 0.17977+309
L=2  Nkbl=1  erefs: 0.17977+309
L=3  Nkbl=1  erefs: 0.17977+309
===============================================================================
</basis_specs>

atom: Called for C                     (Z =   6)

read_vps: Pseudopotential generation method:
read_vps: ATM3      Troullier-Martins                       
Total valence charge:    4.00000

read_vps: Pseudopotential includes a core correction:
read_vps: Pseudo-core for xc-correction

xc_check: Exchange-correlation functional:
xc_check: GGA Perdew, Burke & Ernzerhof 1996
V l=0 = -2*Zval/r beyond r=  1.5227
V l=1 = -2*Zval/r beyond r=  1.5227
V l=2 = -2*Zval/r beyond r=  1.5227
V l=3 = -2*Zval/r beyond r=  1.5038
All V_l potentials equal beyond r=  1.5227
This should be close to max(r_c) in ps generation
All pots = -2*Zval/r beyond r=  1.5227

VLOCAL1: 99.0% of the norm of Vloc inside     18.722 Ry
VLOCAL1: 99.9% of the norm of Vloc inside     42.668 Ry
atom: Maximum radius for 4*pi*r*r*local-pseudopot. charge    1.83678
atom: Maximum radius for r*vlocal+2*Zval:    1.58088
GHOST: No ghost state for L =  0
GHOST: No ghost state for L =  1
GHOST: No ghost state for L =  2
GHOST: No ghost state for L =  3

KBgen: Kleinman-Bylander projectors: 
   l= 0   rc=  1.704034   el= -1.009801   Ekb=  5.335044   kbcos=  0.316824
   l= 1   rc=  1.704034   el= -0.388707   Ekb= -3.785862   kbcos= -0.366464
   l= 2   rc=  1.791422   el=  0.001971   Ekb= -0.970471   kbcos= -0.009212
   l= 3   rc=  1.859892   el=  0.003065   Ekb= -0.399525   kbcos= -0.001223

KBgen: Total number of  Kleinman-Bylander projectors:   16
atom: -------------------------------------------------------------------------

atom: SANKEY-TYPE ORBITALS:
atom: Selected multiple-zeta basis: split     

SPLIT: Orbitals with angular momentum L= 0

SPLIT: Basis orbitals for state 2s

SPLIT: PAO cut-off radius determined from an
SPLIT: energy shift=  0.007350 Ry

   izeta = 1
                 lambda =    1.000000
                     rc =    4.632753
                 energy =   -1.002270
                kinetic =    0.855760
    potential(screened) =   -1.858031
       potential(ionic) =   -5.417575

   izeta = 2
                 rmatch =    3.431921
              splitnorm =    0.150000
                 energy =   -0.867111
                kinetic =    1.300804
    potential(screened) =   -2.167915
       potential(ionic) =   -5.962684

SPLIT: Orbitals with angular momentum L= 1

SPLIT: Basis orbitals for state 2p

SPLIT: PAO cut-off radius determined from an
SPLIT: energy shift=  0.007350 Ry

   izeta = 1
                 lambda =    1.000000
                     rc =    5.658549
                 energy =   -0.381140
                kinetic =    2.399701
    potential(screened) =   -2.780841
       potential(ionic) =   -6.206085

   izeta = 2
                 rmatch =    3.653288
              splitnorm =    0.150000
                 energy =   -0.249149
                kinetic =    3.542762
    potential(screened) =   -3.791911
       potential(ionic) =   -7.581078

POLgen: Perturbative polarization orbital with L=  2

POLgen: Polarization orbital for state 2p

   izeta = 1
                     rc =    5.658549
                 energy =    1.109913
                kinetic =    2.304789
    potential(screened) =   -1.194876
       potential(ionic) =   -4.013592
atom: Total number of Sankey-type orbitals: 13

atm_pop: Valence configuration (for local Pseudopot. screening):
 2s( 2.00)                                                            
 2p( 2.00)                                                            
Vna: chval, zval:    4.00000   4.00000

Vna:  Cut-off radius for the neutral-atom potential:   5.658549
comcore: Pseudo-core radius Rcore=  1.791422

atom: _________________________________________________________________________

<basis_specs>
===============================================================================
B                    Z=   5    Mass=  10.810        Charge= 0.17977+309
Lmxo=1 Lmxkb= 3    BasisType=split      Semic=F
L=0  Nsemic=0  Cnfigmx=2
          n=1  nzeta=2  polorb=0
            splnorm:   0.15000    
               vcte:    0.0000    
               rinn:    0.0000    
                rcs:    0.0000      0.0000    
            lambdas:    1.0000      1.0000    
L=1  Nsemic=0  Cnfigmx=2
          n=1  nzeta=2  polorb=1
            splnorm:   0.15000    
               vcte:    0.0000    
               rinn:    0.0000    
                rcs:    0.0000      0.0000    
            lambdas:    1.0000      1.0000    
-------------------------------------------------------------------------------
L=0  Nkbl=1  erefs: 0.17977+309
L=1  Nkbl=1  erefs: 0.17977+309
L=2  Nkbl=1  erefs: 0.17977+309
L=3  Nkbl=1  erefs: 0.17977+309
===============================================================================
</basis_specs>

atom: Called for B                     (Z =   5)

read_vps: Pseudopotential generation method:
read_vps: ATM3      Troullier-Martins                       
Total valence charge:    3.00000

read_vps: Pseudopotential includes a core correction:
read_vps: Pseudo-core for xc-correction

xc_check: Exchange-correlation functional:
xc_check: GGA Perdew, Burke & Ernzerhof 1996
V l=0 = -2*Zval/r beyond r=  1.7165
V l=1 = -2*Zval/r beyond r=  1.7165
V l=2 = -2*Zval/r beyond r=  1.7165
V l=3 = -2*Zval/r beyond r=  1.6951
All V_l potentials equal beyond r=  1.7165
This should be close to max(r_c) in ps generation
All pots = -2*Zval/r beyond r=  1.7165

VLOCAL1: 99.0% of the norm of Vloc inside     14.733 Ry
VLOCAL1: 99.9% of the norm of Vloc inside     33.577 Ry
atom: Maximum radius for 4*pi*r*r*local-pseudopot. charge    2.04484
atom: Maximum radius for r*vlocal+2*Zval:    1.75994
GHOST: No ghost state for L =  0
GHOST: No ghost state for L =  1
GHOST: No ghost state for L =  2
GHOST: No ghost state for L =  3

KBgen: Kleinman-Bylander projectors: 
   l= 0   rc=  1.897051   el= -0.693730   Ekb=  4.595746   kbcos=  0.286105
   l= 1   rc=  1.920920   el= -0.265236   Ekb= -2.350715   kbcos= -0.315747
   l= 2   rc=  2.044840   el=  0.002055   Ekb= -0.690767   kbcos= -0.013822
   l= 3   rc=  2.149707   el=  0.003188   Ekb= -0.315358   kbcos= -0.002055

KBgen: Total number of  Kleinman-Bylander projectors:   16
atom: -------------------------------------------------------------------------

atom: SANKEY-TYPE ORBITALS:
atom: Selected multiple-zeta basis: split     

SPLIT: Orbitals with angular momentum L= 0

SPLIT: Basis orbitals for state 2s

SPLIT: PAO cut-off radius determined from an
SPLIT: energy shift=  0.007350 Ry

   izeta = 1
                 lambda =    1.000000
                     rc =    5.422032
                 energy =   -0.686029
                kinetic =    0.576707
    potential(screened) =   -1.262736
       potential(ionic) =   -3.271094

   izeta = 2
                 rmatch =    4.222573
              splitnorm =    0.150000
                 energy =   -0.602132
                kinetic =    0.858975
    potential(screened) =   -1.461107
       potential(ionic) =   -3.582536

SPLIT: Orbitals with angular momentum L= 1

SPLIT: Basis orbitals for state 2p

SPLIT: PAO cut-off radius determined from an
SPLIT: energy shift=  0.007350 Ry

   izeta = 1
                 lambda =    1.000000
                     rc =    6.790259
                 energy =   -0.258578
                kinetic =    1.481412
    potential(screened) =   -1.739989
       potential(ionic) =   -3.657461

   izeta = 2
                 rmatch =    4.608740
              splitnorm =    0.150000
                 energy =   -0.173757
                kinetic =    2.186690
    potential(screened) =   -2.360447
       potential(ionic) =   -4.464260

POLgen: Perturbative polarization orbital with L=  2

POLgen: Polarization orbital for state 2p

   izeta = 1
                     rc =    6.790259
                 energy =    0.684082
                kinetic =    1.471481
    potential(screened) =   -0.787399
       potential(ionic) =   -2.406985
atom: Total number of Sankey-type orbitals: 13

atm_pop: Valence configuration (for local Pseudopot. screening):
 2s( 2.00)                                                            
 2p( 1.00)                                                            
Vna: chval, zval:    3.00000   3.00000

Vna:  Cut-off radius for the neutral-atom potential:   6.790259
comcore: Pseudo-core radius Rcore=  2.122997

atom: _________________________________________________________________________

prinput: Basis input ----------------------------------------------------------

PAO.BasisType split     

%block ChemicalSpeciesLabel
    1    6 C                       # Species index, atomic number, species label
    2    5 B                       # Species index, atomic number, species label
%endblock ChemicalSpeciesLabel

%block PAO.Basis                 # Define Basis set
C                     2                    # Species label, number of l-shells
 n=2   0   2                         # n, l, Nzeta 
   4.633      3.432   
   1.000      1.000   
 n=2   1   2 P   1                   # n, l, Nzeta, Polarization, NzetaPol
   5.659      3.653   
   1.000      1.000   
B                     2                    # Species label, number of l-shells
 n=2   0   2                         # n, l, Nzeta 
   5.422      4.223   
   1.000      1.000   
 n=2   1   2 P   1                   # n, l, Nzeta, Polarization, NzetaPol
   6.790      4.609   
   1.000      1.000   
%endblock PAO.Basis

prinput: ----------------------------------------------------------------------

coor:   Atomic-coordinates input format  =     Cartesian coordinates
coor:                                          (in Angstroms)

siesta: Atomic coordinates (Bohr) and species
siesta:      2.23554   1.32097   0.00000  1        1
siesta:     34.83141  22.82873   0.00000  1        2
siesta:     34.83116  17.45226   0.00000  1        3
siesta:     37.15930  18.79590   0.00000  1        4
siesta:     32.50291  13.41944   0.00000  1        5
siesta:     34.83104  14.76308   0.00000  1        6
siesta:     30.17465   9.38661   0.00000  1        7
siesta:     32.50278  10.73026   0.00000  1        8
siesta:     27.84639   5.35379   0.00000  1        9
siesta:     30.17453   6.69743   0.00000  1       10
siesta:     27.84714  21.48508   0.00000  1       11
siesta:     30.17527  22.82873   0.00000  1       12
siesta:      6.89168   1.32097   0.00000  1       13
siesta:      9.21981   2.66461   0.00000  1       14
siesta:     13.87595   2.66461   0.00000  1       15
siesta:     16.20396   1.32097   0.00000  1       16
siesta:     18.53210   2.66461   0.00000  1       17
siesta:     23.19013   2.66461   0.00000  1       18
siesta:     25.51813   1.32097   0.00000  1       19
siesta:     27.84627   2.66461   0.00000  1       20
siesta:      4.56380   5.35379   0.00000  1       21
siesta:      6.89193   6.69743   0.00000  1       22
siesta:      9.21994   5.35379   0.00000  1       23
siesta:     11.54807   6.69743   0.00000  1       24
siesta:     13.87608   5.35379   0.00000  1       25
siesta:     16.20421   6.69743   0.00000  1       26
siesta:     18.53411   5.35379   0.00000  1       27
siesta:     20.86224   6.69743   0.00000  1       28
siesta:     23.19025   5.35379   0.00000  1       29
siesta:     25.51838   6.69743   0.00000  1       30
siesta:      9.22019  10.73026   0.00000  1       31
siesta:     11.54820   9.38661   0.00000  1       32
siesta:     13.87633  10.73026   0.00000  1       33
siesta:     18.53247  10.73026   0.00000  1       34
siesta:     20.86237   9.38661   0.00000  1       35
siesta:     23.19050  10.73026   0.00000  1       36
siesta:      9.22031  13.41944   0.00000  1       37
siesta:     11.54845  14.76308   0.00000  1       38
siesta:     13.87645  13.41944   0.00000  1       39
siesta:     16.20459  14.76308   0.00000  1       40
siesta:     18.53448  13.41944   0.00000  1       41
siesta:     20.86262  14.76308   0.00000  1       42
siesta:     13.87670  18.79590   0.00000  1       43
siesta:     16.20471  17.45226   0.00000  1       44
siesta:     18.53284  18.79590   0.00000  1       45
siesta:     13.87683  21.48508   0.00000  1       46
siesta:     16.20496  22.82873   0.00000  1       47
siesta:     18.53486  21.48508   0.00000  1       48
siesta:     20.86299  22.82873   0.00000  1       49
siesta:     27.84664  10.73026   0.00000  1       50
siesta:     23.19063  13.41944   0.00000  1       51
siesta:     25.51876  14.76308   0.00000  1       52
siesta:     23.19088  18.79590   0.00000  1       53
siesta:     27.84677  13.41944   0.00000  1       54
siesta:     30.17490  14.76308   0.00000  1       55
siesta:     25.51888  17.45226   0.00000  1       56
siesta:     27.84702  18.79590   0.00000  1       57
siesta:     23.19100  21.48508   0.00000  1       58
siesta:     25.51913  22.82873   0.00000  1       59
siesta:     30.17503  17.45226   0.00000  1       60
siesta:     32.50316  18.79590   0.00000  1       61
siesta:     37.16131  21.48508   0.00000  1       62
siesta:     39.48945  22.82873   0.00000  1       63
siesta:      4.56367   2.66461   0.00000  2       64
siesta:     32.50328  21.48508   0.00000  2       65
siesta:     11.54782   1.32097   0.00000  2       66
siesta:     20.86199   1.32097   0.00000  2       67
siesta:      6.89205   9.38661   0.00000  2       68
siesta:     16.20434   9.38661   0.00000  2       69
siesta:     11.54857  17.45226   0.00000  2       70
siesta:     25.51851   9.38661   0.00000  2       71
siesta:     20.86274  17.45226   0.00000  2       72

siesta: System type = slab      

initatomlists: Number of atoms, orbitals, and projectors:     72   936  1152

siesta: ******************** Simulation parameters ****************************
siesta:
siesta: The following are some of the parameters of the simulation.
siesta: A complete list of the parameters used, including default values,
siesta: can be found in file out.fdf
siesta:
redata: Non-Collinear-spin run           =     F
redata: SpinPolarized (Up/Down) run      =     F
redata: Number of spin components        =     1
redata: Long output                      =     F
redata: Number of Atomic Species         =        2
redata: Charge density info will appear in .RHO file
redata: Write Mulliken Pop.              =     NO
redata: Mesh Cutoff                      =   200.0000  Ry
redata: Net charge of the system         =     0.0000 |e|
redata: Max. number of SCF Iter          =      500
redata: SCF convergence failure will abort job
redata: Performing Pulay mixing using    =    10 iterations
redata: Mix DM in first SCF step ?       =     F
redata: Write Pulay info on disk?        =     F
redata: Discard 1st Pulay DM after  kick =     F
redata: New DM Mixing Weight             =     0.0500
redata: New DM Occupancy tolerance       = 0.000000000001
redata: No kicks to SCF
redata: DM Mixing Weight for Kicks       =     0.5000
redata: DM Tolerance for SCF             =     0.000100
redata: Require Energy convergence for SCF =     F
redata: DM Energy tolerance for SCF      =     0.000100 eV
redata: Require Harris convergence for SCF =     F
redata: DM Harris energy tolerance for SCF =     0.000100 eV
redata: Using Saved Data (generic)   =     F
redata: Use continuation files for DM    =     T
redata: Neglect nonoverlap interactions  =     F
redata: Method of Calculation            =     Diagonalization
redata: Divide and Conquer               =     T
redata: Electronic Temperature           =     0.0019  Ry
redata: Fix the spin of the system       =     F
redata: Dynamics option                  =     Verlet MD run
redata: Initial MD time step             =        1
redata:   Final MD time step             =        1
redata: Length of MD time step           =     1.0000  fs
redata: Initial Temperature of MD run    =     0.0000  K
redata: Perform a MD quench              =     F
redata: ***********************************************************************
Total number of electrons:   279.000000
Total ionic charge:   279.000000

* ProcessorY, Blocksize:    2  24

k-point displ. along   1 input, could be:     0.00    0.50
k-point displ. along   2 input, could be:     0.00    0.50
 Kpoints in:          364 . Kpoints trimmed:          352

siesta: k-grid: Number of k-points =   352
siesta: k-grid: Cutoff (effective) =     5.000 Ang
siesta: k-grid: Supercell and displacements
siesta: k-grid:   26   0   0      0.000
siesta: k-grid:    0  26   0      0.000
siesta: k-grid:    0   0   1      0.000
Naive supercell factors:     2    2    2

superc: Internal auxiliary supercell:     2 x     2 x     2  =       8
superc: Number of atoms, orbitals, and projectors:    576   7488   9216

* Maximum dynamic memory allocated =     6 MB

siesta:                 ==============================
                            Begin MD step =      1
                        ==============================

superc: Internal auxiliary supercell:     2 x     2 x     2  =       8
superc: Number of atoms, orbitals, and projectors:    576   7488   9216

outcell: Unit cell vectors (Ang):
       14.785000    0.000000    0.000000
        7.393000   12.805052    0.000000
        0.000000    0.000000   10.000000

outcell: Cell vector modules (Ang)   :   14.785000   14.786000   10.000000
outcell: Cell angles (23,13,12) (deg):     90.0000     90.0000     60.0000
outcell: Cell volume (Ang**3)        :   1893.2269
New_DM. Step:     1
Initializing Density Matrix...

InitMesh: MESH =   120 x   120 x    90 =     1296000
InitMesh: Mesh cutoff (required, used) =   200.000   223.865 Ry

* Maximum dynamic memory allocated =   207 MB

stepf: Fermi-Dirac step function

siesta: Program's energy decomposition (eV):
siesta: Ebs     =     -4462.305172
siesta: Eions   =     17250.500670
siesta: Ena     =      3769.690538
siesta: Ekin    =      5903.534022
siesta: Enl     =       294.172760
siesta: DEna    =        -0.000010
siesta: DUscf   =         0.000000
siesta: DUext   =         0.000000
siesta: Exc     =     -3961.779790
siesta: eta*DQ  =         0.000000
siesta: Emadel  =         0.000000
siesta: Emeta   =         0.000000
siesta: Emolmec =         0.000000
siesta: Ekinion =         0.000000
siesta: Eharris =    -11173.249748
siesta: Etot    =    -11244.883151
siesta: FreeEng =    -11244.883151

siesta: iscf   Eharris(eV)      E_KS(eV)   FreeEng(eV)   dDmax  Ef(eV)
siesta:    1   -11173.2497   -11244.8832   -11244.8832  1.9093 -8.1123
timer: Routine,Calls,Time,% = IterSCF        1    6760.046  99.84
elaps: Routine,Calls,Wall,% = IterSCF        1     846.347  99.88
siesta:    2   -11187.5527   -11126.6087   -11126.6408  0.5087 -3.8943
siesta:    3   -11153.2565   -11160.6988   -11160.7345  0.4595 -5.4799
siesta:    4   -11150.3296   -11156.1195   -11156.1598  0.3762 -5.5290
siesta:    5   -11146.2517   -11149.9767   -11150.0057  0.2279 -5.6885
siesta:    6   -11148.8308   -11145.3817   -11145.4142  0.1240 -5.7893
siesta:    7   -11146.9379   -11143.0008   -11143.0295  0.0614 -5.8829
siesta:    8   -11146.2719   -11142.3152   -11142.3488  0.0463 -5.9037
siesta:    9   -11145.4155   -11142.3566   -11142.3924  0.0199 -5.9531
siesta:   10   -11145.2631   -11142.5197   -11142.5532  0.0162 -5.9663
siesta:   11   -11145.1620   -11143.1764   -11143.2087  0.0088 -5.9732
siesta:   12   -11145.1598   -11143.3625   -11143.3959  0.0079 -5.9743
siesta:   13   -11145.1590   -11144.1251   -11144.1586  0.0049 -5.9730
siesta:   14   -11145.1575   -11144.5830   -11144.6165  0.0028 -5.9665
siesta:   15   -11145.1575   -11144.8610   -11144.8948  0.0024 -5.9660
siesta:   16   -11145.1572   -11145.0966   -11145.1303  0.0012 -5.9660
siesta:   17   -11145.1571   -11145.1647   -11145.1984  0.0005 -5.9650
siesta:   18   -11145.1570   -11145.1260   -11145.1596  0.0004 -5.9652
siesta:   19   -11145.1570   -11145.1620   -11145.1956  0.0002 -5.9654
siesta:   20   -11145.1570   -11145.1629   -11145.1965  0.0002 -5.9654
siesta:   21   -11145.1570   -11145.1606   -11145.1942  0.0001 -5.9655
siesta:   22   -11145.1570   -11145.1596   -11145.1932  0.0001 -5.9655

siesta: E_KS(eV) =           -11145.1597

siesta: E_KS - E_eggbox =    -11145.1597

siesta: Atomic forces (eV/Ang):
----------------------------------------
   Tot    0.199454   -0.139453    0.000000
----------------------------------------
   Max    3.855202
   Res    1.221405    sqrt( Sum f_i^2 / 3N )
----------------------------------------
   Max    3.855202    constrained

Stress-tensor-Voigt (kbar):     -119.23     -117.99       -0.25       -0.33        0.00        0.00
(Free)E + p*V (eV/cell)   -11051.6559
Target enthalpy (eV/cell)   -11145.1932

siesta: Stress tensor (static) (eV/Ang**3):
        -0.074417   -0.000208    0.000000
        -0.000208   -0.073644    0.000000
         0.000000    0.000000   -0.000157

siesta: Pressure (static):         79.15848837  kBar

siesta: Stress tensor (total) (eV/Ang**3):
        -0.074417   -0.000208    0.000000
        -0.000208   -0.073644    0.000000
         0.000000    0.000000   -0.000157

siesta: Pressure (total):         79.15848837  kBar

siesta: Temp_ion =       0.000 K

* Maximum dynamic memory allocated =   222 MB

siesta: Program's energy decomposition (eV):
siesta: Ebs     =     -3691.269691
siesta: Eions   =     17250.500670
siesta: Ena     =      3769.690538
siesta: Ekin    =      7407.216788
siesta: Enl     =      -692.019792
siesta: DEna    =      -342.214181
siesta: DUscf   =        36.427794
siesta: DUext   =         0.000000
siesta: Exc     =     -4073.760126
siesta: eta*DQ  =         0.000000
siesta: Emadel  =         0.000000
siesta: Emeta   =         0.000000
siesta: Emolmec =         0.000000
siesta: Ekinion =         0.000000
siesta: Eharris =    -11145.157000
siesta: Etot    =    -11145.159650
siesta: FreeEng =    -11145.193228

siesta: Final energy (eV):
siesta:  Band Struct. =   -3691.269691
siesta:       Kinetic =    7407.216788
siesta:       Hartree =   21692.845836
siesta:    Ext. field =       0.000000
siesta:   Exch.-corr. =   -4073.760126
siesta:  Ion-electron =  -50124.843925
siesta:       Ion-ion =   13953.381777
siesta:       Ekinion =       0.000000
siesta:         Total =  -11145.159650

siesta: Atomic forces (eV/Ang):
siesta:      1   -3.250462   -1.923477    0.000000
siesta:      2    3.383926   -1.649913    0.000000
siesta:      3   -0.713269   -0.085985    0.000000
siesta:      4   -2.361617    1.669440    0.000000
siesta:      5   -0.383490   -0.208521    0.000000
siesta:      6   -0.184667    0.304401    0.000000
siesta:      7   -0.269629    1.469259    0.000000
siesta:      8   -2.996507    1.672014    0.000000
siesta:      9   -0.611256    0.060406    0.000000
siesta:     10    0.593846   -0.159510    0.000000
siesta:     11   -0.429263    0.407892    0.000000
siesta:     12   -3.074541    1.325522    0.000000
siesta:     13    3.081797   -1.650062    0.000000
siesta:     14   -2.745048    1.075413    0.000000
siesta:     15    2.908586    1.600131    0.000000
siesta:     16   -0.657989    1.168572    0.000000
siesta:     17   -2.806367    1.905468    0.000000
siesta:     18    2.781027    1.915015    0.000000
siesta:     19   -0.010791    0.424699    0.000000
siesta:     20    0.426315   -1.034049    0.000000
siesta:     21    0.122423    3.431499    0.000000
siesta:     22   -0.417340   -2.940104    0.000000
siesta:     23   -0.635665   -0.359466    0.000000
siesta:     24   -0.156015   -0.143232    0.000000
siesta:     25    1.006175   -0.420212    0.000000
siesta:     26   -0.109495   -3.108532    0.000000
siesta:     27   -0.955374   -0.659867    0.000000
siesta:     28   -0.073690    0.063001    0.000000
siesta:     29    0.980983   -0.692777    0.000000
siesta:     30    0.212600   -3.443534    0.000000
siesta:     31    2.721663    1.767080    0.000000
siesta:     32    0.135223    1.224743    0.000000
siesta:     33   -2.834051    1.557395    0.000000
siesta:     34    2.727350    1.572098    0.000000
siesta:     35   -0.077525    1.010310    0.000000
siesta:     36   -2.673980    1.686897    0.000000
siesta:     37    1.216769   -0.808759    0.000000
siesta:     38   -0.137074   -3.152811    0.000000
siesta:     39   -0.829175   -0.619016    0.000000
siesta:     40   -0.052293   -0.072188    0.000000
siesta:     41    0.825316   -0.639776    0.000000
siesta:     42    0.115072   -3.146780    0.000000
siesta:     43    2.826600    1.535955    0.000000
siesta:     44   -0.120932    1.055839    0.000000
siesta:     45   -2.832836    1.967461    0.000000
siesta:     46    0.413230   -0.132812    0.000000
siesta:     47   -0.646137    0.914283    0.000000
siesta:     48   -0.255569   -0.599864    0.000000
siesta:     49    0.155335    0.575544    0.000000
siesta:     50    3.076325    1.631682    0.000000
siesta:     51   -1.179638   -0.751540    0.000000
siesta:     52    0.427286    0.144202    0.000000
siesta:     53    2.867039    1.934323    0.000000
siesta:     54    0.364304   -0.176097    0.000000
siesta:     55   -0.207296    0.485304    0.000000
siesta:     56    0.332927    0.489579    0.000000
siesta:     57    0.084294   -0.431756    0.000000
siesta:     58    1.089808   -0.949071    0.000000
siesta:     59   -0.198976   -3.581444    0.000000
siesta:     60    0.513989   -0.447928    0.000000
siesta:     61   -0.370120   -3.855202    0.000000
siesta:     62   -1.198424   -0.092862    0.000000
siesta:     63    0.588264    0.120794    0.000000
siesta:     64   -0.363916   -0.183058    0.000000
siesta:     65    0.328785   -0.173046    0.000000
siesta:     66    0.173346    0.083964    0.000000
siesta:     67    0.478501   -0.349895    0.000000
siesta:     68    0.143543    0.100191    0.000000
siesta:     69    0.027220   -0.037852    0.000000
siesta:     70   -0.189937    0.103106    0.000000
siesta:     71    0.017826    0.078695    0.000000
siesta:     72    0.062115    0.009370    0.000000
siesta: ----------------------------------------
siesta:    Tot    0.199454   -0.139453    0.000000

siesta: Stress tensor (static) (eV/Ang**3):
siesta:    -0.074417   -0.000208    0.000000
siesta:    -0.000208   -0.073644    0.000000
siesta:     0.000000    0.000000   -0.000157

siesta: Cell volume =       1893.226895 Ang**3

siesta: Pressure (static):
siesta:                Solid            Molecule  Units
siesta:           0.00053810          0.00060920  Ry/Bohr**3
siesta:           0.04940631          0.05593473  eV/Ang**3
siesta:          79.15848837         89.61828450  kBar
(Free)E+ p_basis*V_orbitals  =      -11111.612029
(Free)Eharris+ p_basis*V_orbitals  =      -11111.609447

siesta: Electric dipole (a.u.)  =    0.000000    0.000000    0.000000
siesta: Electric dipole (Debye) =    0.000000    0.000000    0.000000

* Maximum dynamic memory allocated : Node    0 =   221 MB
* Maximum dynamic memory allocated : Node    1 =    80 MB
* Maximum dynamic memory allocated : Node    2 =    84 MB
* Maximum dynamic memory allocated : Node    3 =   211 MB
* Maximum dynamic memory allocated : Node    4 =   222 MB
* Maximum dynamic memory allocated : Node    5 =    80 MB
* Maximum dynamic memory allocated : Node    6 =    83 MB
* Maximum dynamic memory allocated : Node    7 =   204 MB

* Maximum memory occured during matrixMtoO                    

timer: CPU execution times:
timer:  Routine       Calls   Time/call    Tot.time        %
timer:  siesta            1  146948.372  146948.372   100.00
timer:  Setup             1       3.020       3.020     0.00
timer:  bands             1       0.009       0.009     0.00
timer:  writewave         1       0.018       0.018     0.00
timer:  KSV_init          1       0.001       0.001     0.00
timer:  IterMD            1  146937.236  146937.236    99.99
timer:  hsparse           1       0.394       0.394     0.00
timer:  overlap           1       6.405       6.405     0.00
timer:  IterSCF          22    6669.922  146738.288    99.86
timer:  kinefsm           2       3.328       6.657     0.00
timer:  nlefsm            2      20.431      40.862     0.03
timer:  DHSCF            23     104.572    2405.151     1.64
timer:  DHSCF1            1       0.999       0.999     0.00
timer:  DHSCF2            1      41.901      41.901     0.03
timer:  REORD           186       0.010       1.877     0.00
timer:  POISON           24       2.249      53.973     0.04
timer:  DHSCF3           23     101.052    2324.186     1.58
timer:  rhoofd           23      19.812     455.669     0.31
timer:  cellXC           23       3.517      80.900     0.06
timer:  vmat             23      51.873    1193.079     0.81
timer:  MolMec            2       0.000       0.000     0.00
timer:  diagon           22    6564.277  144414.099    98.28
timer:  c-eigval       7744       6.684   51760.670    35.22
timer:  c-buildHS      7744       0.123     948.858     0.65
timer:  cdiag         15488       6.885  106632.336    72.56
timer:  cdiag1        15488       0.427    6609.958     4.50
timer:  cdiag2        15488       1.910   29581.159    20.13
timer:  cdiag3        15488       3.948   61148.633    41.61
timer:  cdiag4        15488       0.230    3569.011     2.43
timer:  c-eigvec       7744       7.283   56397.216    38.38
timer:  c-buildD       7744       4.673   36191.229    24.63
timer:  DHSCF4            1      36.832      36.832     0.03
timer:  dfscf             1      34.295      34.295     0.02
timer:  overfsm           1       0.426       0.426     0.00
timer:  optical           1       7.105       7.105     0.00
  

elaps: ELAPSED times:
elaps:  Routine       Calls   Time/call    Tot.time        %
elaps:  siesta            1   18390.100   18390.100   100.00
elaps:  Setup             1       0.377       0.377     0.00
elaps:  bands             1       0.001       0.001     0.00
elaps:  writewave         1       0.002       0.002     0.00
elaps:  KSV_init          1       0.000       0.000     0.00
elaps:  IterMD            1   18388.707   18388.707    99.99
elaps:  hsparse           1       0.049       0.049     0.00
elaps:  overlap           1       0.528       0.528     0.00
elaps:  IterSCF          22     834.734   18364.156    99.86
elaps:  kinefsm           2       0.279       0.558     0.00
elaps:  nlefsm            2       2.645       5.290     0.03
elaps:  DHSCF            23      13.239     304.500     1.66
elaps:  DHSCF1            1       0.129       0.129     0.00
elaps:  DHSCF2            1       5.236       5.236     0.03
elaps:  REORD           186       0.001       0.261     0.00
elaps:  POISON           24       0.281       6.747     0.04
elaps:  DHSCF3           23      12.642     290.768     1.58
elaps:  rhoofd           23       4.265      98.095     0.53
elaps:  cellXC           23       0.439      10.104     0.05
elaps:  vmat             23       6.489     149.244     0.81
elaps:  MolMec            2       0.000       0.000     0.00
elaps:  diagon           22     821.525   18073.546    98.28
elaps:  c-eigval       7744       0.836    6476.066    35.21
elaps:  c-buildHS      7744       0.017     129.165     0.70
elaps:  cdiag         15488       0.850   13163.272    71.58
elaps:  cdiag1        15488       0.053     816.131     4.44
elaps:  cdiag2        15488       0.239    3701.450    20.13
elaps:  cdiag3        15488       0.495    7661.426    41.66
elaps:  cdiag4        15488       0.030     462.956     2.52
elaps:  c-eigvec       7744       0.892    6904.010    37.54
elaps:  c-buildD       7744       0.605    4684.211    25.47
elaps:  DHSCF4            1       8.202       8.202     0.04
elaps:  dfscf             1       7.718       7.718     0.04
elaps:  overfsm           1       0.052       0.052     0.00
elaps:  optical           1       0.000       0.000     0.00
  
>> End of run:  28-NOV-2015  18:26:44
