Siesta Version:                                        siesta-3.2-pl-3
Architecture  : x86_64-unknown-linux-gnu--unknown
Compiler flags: mpiifort -g -O2 -fPIC -xSSE4.1 -fp-model source -shared-intel 
PARALLEL version

* Running on    8 nodes in parallel
>> Start of run:   8-DEC-2015  14:44:50

                           ***********************       
                           *  WELCOME TO SIESTA  *       
                           ***********************       

reinit: Reading from standard input
************************** Dump of input data file ****************************
#(1) General system descriptors
SystemName            GRP_doping    # Descriptive name of the system
SystemLabel           GRP_doping    # Short name for naming files
%include STRUCT.fdf
%include KPT.fdf
%include BASIS.fdf
#%include TS.fdf # for transiesta calculation
#(4) DFT, Grid, SCF
XC.functional         GGA           # LDA or GGA (default = LDA)
XC.authors            PBE           # CA (Ceperley-Aldr) = PZ
                                    #    (Perdew-Zunger) - LDA - Default
                                    # PW92 (Perdew-Wang-92) - LDA
                                    # PBE (Perdew-Burke-Ernzerhof) - GGA
MeshCutoff            200.000000    Ry      # Default: 50.0 Ry ~ 0.444 Bohr
                                    #         100.0 Ry ~ 0.314 Bohr
MaxSCFIterations      500           # Default: 50
DM.MixingWeight       0.05          # Default: 0.25
DM.NumberPulay        10            # Default: 0
DM.PulayOnFile        F             # SystemLabel.P1, SystemLabel.P2
DM.Tolerance          1.d-4         # Default: 1.d-4
DM.UseSaveDM          .true.        # because of the bug
SCFMustConverge       .true.
NeglNonOverlapInt     F             # Default: F
#(5) Eigenvalue problem: order-N or diagonalization
SolutionMethod        Diagon        # or Transiesta
ElectronicTemperature 300.0 K       # Default: 300.0 K
#(6) Molecular dynamics and relaxations
#MD.TypeOfRun          CG            # Type of dynamics:
#MD.VariableCell       F
#MD.NumCGsteps         0           # 0 for single-point / 100 for gopt
#MD.MaxCGDispl         0.2 Bohr      # Default: 0.2 Bohr
#MD.MaxForceTol        0.02 eV/Ang   # Default: 0.04 eV/Ang
#MD.MaxStressTol       1.0 GPa       # Default: 1.0 GPa
# Geometry Constraints
#%block GeometryConstraints
#	position from 1 to 44
#%endblock GeometryConstraints
BandLinesScale   pi/a
%block BandLines
 1   0.00000000  0.00000000  0.00000000
50   0.00000000  0.07809418  0.00000000
50   0.04509075  0.07809242  0.00000000
20   0.00000000  0.00000000  0.00000000
%endblock BandLines
************************** End of input data file *****************************

reinit: -----------------------------------------------------------------------
reinit: System Name: GRP_doping
reinit: -----------------------------------------------------------------------
reinit: System Label: GRP_doping                                                  
reinit: -----------------------------------------------------------------------

initatom: Reading input for the pseudopotentials and atomic orbitals ----------
 Species number:            1  Label: C Atomic number:           6
 Species number:            2  Label: B Atomic number:           5
Ground state valence configuration:   2s02  2p02
Reading pseudopotential information in formatted form from C.psf

Valence configuration for pseudopotential generation:
2s( 2.00) rc: 1.54
2p( 2.00) rc: 1.54
3d( 0.00) rc: 1.54
4f( 0.00) rc: 1.54
Ground state valence configuration:   2s02  2p01
Reading pseudopotential information in formatted form from B.psf

Valence configuration for pseudopotential generation:
2s( 2.00) rc: 1.74
2p( 1.00) rc: 1.74
3d( 0.00) rc: 1.74
4f( 0.00) rc: 1.74
For C, standard SIESTA heuristics set lmxkb to 3
 (one more than the basis l, including polarization orbitals).
Use PS.lmax or PS.KBprojectors blocks to override.
For B, standard SIESTA heuristics set lmxkb to 3
 (one more than the basis l, including polarization orbitals).
Use PS.lmax or PS.KBprojectors blocks to override.

<basis_specs>
===============================================================================
C                    Z=   6    Mass=  12.010        Charge= 0.17977+309
Lmxo=1 Lmxkb= 3    BasisType=split      Semic=F
L=0  Nsemic=0  Cnfigmx=2
          n=1  nzeta=2  polorb=0
            splnorm:   0.15000    
               vcte:    0.0000    
               rinn:    0.0000    
                rcs:    0.0000      0.0000    
            lambdas:    1.0000      1.0000    
L=1  Nsemic=0  Cnfigmx=2
          n=1  nzeta=2  polorb=1
            splnorm:   0.15000    
               vcte:    0.0000    
               rinn:    0.0000    
                rcs:    0.0000      0.0000    
            lambdas:    1.0000      1.0000    
-------------------------------------------------------------------------------
L=0  Nkbl=1  erefs: 0.17977+309
L=1  Nkbl=1  erefs: 0.17977+309
L=2  Nkbl=1  erefs: 0.17977+309
L=3  Nkbl=1  erefs: 0.17977+309
===============================================================================
</basis_specs>

atom: Called for C                     (Z =   6)

read_vps: Pseudopotential generation method:
read_vps: ATM3      Troullier-Martins                       
Total valence charge:    4.00000

read_vps: Pseudopotential includes a core correction:
read_vps: Pseudo-core for xc-correction

xc_check: Exchange-correlation functional:
xc_check: GGA Perdew, Burke & Ernzerhof 1996
V l=0 = -2*Zval/r beyond r=  1.5227
V l=1 = -2*Zval/r beyond r=  1.5227
V l=2 = -2*Zval/r beyond r=  1.5227
V l=3 = -2*Zval/r beyond r=  1.5038
All V_l potentials equal beyond r=  1.5227
This should be close to max(r_c) in ps generation
All pots = -2*Zval/r beyond r=  1.5227

VLOCAL1: 99.0% of the norm of Vloc inside     18.722 Ry
VLOCAL1: 99.9% of the norm of Vloc inside     42.668 Ry
atom: Maximum radius for 4*pi*r*r*local-pseudopot. charge    1.83678
atom: Maximum radius for r*vlocal+2*Zval:    1.58088
GHOST: No ghost state for L =  0
GHOST: No ghost state for L =  1
GHOST: No ghost state for L =  2
GHOST: No ghost state for L =  3

KBgen: Kleinman-Bylander projectors: 
   l= 0   rc=  1.704034   el= -1.009801   Ekb=  5.335044   kbcos=  0.316824
   l= 1   rc=  1.704034   el= -0.388707   Ekb= -3.785862   kbcos= -0.366464
   l= 2   rc=  1.791422   el=  0.001971   Ekb= -0.970471   kbcos= -0.009212
   l= 3   rc=  1.859892   el=  0.003065   Ekb= -0.399525   kbcos= -0.001223

KBgen: Total number of  Kleinman-Bylander projectors:   16
atom: -------------------------------------------------------------------------

atom: SANKEY-TYPE ORBITALS:
atom: Selected multiple-zeta basis: split     

SPLIT: Orbitals with angular momentum L= 0

SPLIT: Basis orbitals for state 2s

SPLIT: PAO cut-off radius determined from an
SPLIT: energy shift=  0.007350 Ry

   izeta = 1
                 lambda =    1.000000
                     rc =    4.632753
                 energy =   -1.002270
                kinetic =    0.855760
    potential(screened) =   -1.858031
       potential(ionic) =   -5.417575

   izeta = 2
                 rmatch =    3.431921
              splitnorm =    0.150000
                 energy =   -0.867111
                kinetic =    1.300804
    potential(screened) =   -2.167915
       potential(ionic) =   -5.962684

SPLIT: Orbitals with angular momentum L= 1

SPLIT: Basis orbitals for state 2p

SPLIT: PAO cut-off radius determined from an
SPLIT: energy shift=  0.007350 Ry

   izeta = 1
                 lambda =    1.000000
                     rc =    5.658549
                 energy =   -0.381140
                kinetic =    2.399701
    potential(screened) =   -2.780841
       potential(ionic) =   -6.206085

   izeta = 2
                 rmatch =    3.653288
              splitnorm =    0.150000
                 energy =   -0.249149
                kinetic =    3.542762
    potential(screened) =   -3.791911
       potential(ionic) =   -7.581078

POLgen: Perturbative polarization orbital with L=  2

POLgen: Polarization orbital for state 2p

   izeta = 1
                     rc =    5.658549
                 energy =    1.109913
                kinetic =    2.304789
    potential(screened) =   -1.194876
       potential(ionic) =   -4.013592
atom: Total number of Sankey-type orbitals: 13

atm_pop: Valence configuration (for local Pseudopot. screening):
 2s( 2.00)                                                            
 2p( 2.00)                                                            
Vna: chval, zval:    4.00000   4.00000

Vna:  Cut-off radius for the neutral-atom potential:   5.658549
comcore: Pseudo-core radius Rcore=  1.791422

atom: _________________________________________________________________________

<basis_specs>
===============================================================================
B                    Z=   5    Mass=  10.810        Charge= 0.17977+309
Lmxo=1 Lmxkb= 3    BasisType=split      Semic=F
L=0  Nsemic=0  Cnfigmx=2
          n=1  nzeta=2  polorb=0
            splnorm:   0.15000    
               vcte:    0.0000    
               rinn:    0.0000    
                rcs:    0.0000      0.0000    
            lambdas:    1.0000      1.0000    
L=1  Nsemic=0  Cnfigmx=2
          n=1  nzeta=2  polorb=1
            splnorm:   0.15000    
               vcte:    0.0000    
               rinn:    0.0000    
                rcs:    0.0000      0.0000    
            lambdas:    1.0000      1.0000    
-------------------------------------------------------------------------------
L=0  Nkbl=1  erefs: 0.17977+309
L=1  Nkbl=1  erefs: 0.17977+309
L=2  Nkbl=1  erefs: 0.17977+309
L=3  Nkbl=1  erefs: 0.17977+309
===============================================================================
</basis_specs>

atom: Called for B                     (Z =   5)

read_vps: Pseudopotential generation method:
read_vps: ATM3      Troullier-Martins                       
Total valence charge:    3.00000

read_vps: Pseudopotential includes a core correction:
read_vps: Pseudo-core for xc-correction

xc_check: Exchange-correlation functional:
xc_check: GGA Perdew, Burke & Ernzerhof 1996
V l=0 = -2*Zval/r beyond r=  1.7165
V l=1 = -2*Zval/r beyond r=  1.7165
V l=2 = -2*Zval/r beyond r=  1.7165
V l=3 = -2*Zval/r beyond r=  1.6951
All V_l potentials equal beyond r=  1.7165
This should be close to max(r_c) in ps generation
All pots = -2*Zval/r beyond r=  1.7165

VLOCAL1: 99.0% of the norm of Vloc inside     14.733 Ry
VLOCAL1: 99.9% of the norm of Vloc inside     33.577 Ry
atom: Maximum radius for 4*pi*r*r*local-pseudopot. charge    2.04484
atom: Maximum radius for r*vlocal+2*Zval:    1.75994
GHOST: No ghost state for L =  0
GHOST: No ghost state for L =  1
GHOST: No ghost state for L =  2
GHOST: No ghost state for L =  3

KBgen: Kleinman-Bylander projectors: 
   l= 0   rc=  1.897051   el= -0.693730   Ekb=  4.595746   kbcos=  0.286105
   l= 1   rc=  1.920920   el= -0.265236   Ekb= -2.350715   kbcos= -0.315747
   l= 2   rc=  2.044840   el=  0.002055   Ekb= -0.690767   kbcos= -0.013822
   l= 3   rc=  2.149707   el=  0.003188   Ekb= -0.315358   kbcos= -0.002055

KBgen: Total number of  Kleinman-Bylander projectors:   16
atom: -------------------------------------------------------------------------

atom: SANKEY-TYPE ORBITALS:
atom: Selected multiple-zeta basis: split     

SPLIT: Orbitals with angular momentum L= 0

SPLIT: Basis orbitals for state 2s

SPLIT: PAO cut-off radius determined from an
SPLIT: energy shift=  0.007350 Ry

   izeta = 1
                 lambda =    1.000000
                     rc =    5.422032
                 energy =   -0.686029
                kinetic =    0.576707
    potential(screened) =   -1.262736
       potential(ionic) =   -3.271094

   izeta = 2
                 rmatch =    4.222573
              splitnorm =    0.150000
                 energy =   -0.602132
                kinetic =    0.858975
    potential(screened) =   -1.461107
       potential(ionic) =   -3.582536

SPLIT: Orbitals with angular momentum L= 1

SPLIT: Basis orbitals for state 2p

SPLIT: PAO cut-off radius determined from an
SPLIT: energy shift=  0.007350 Ry

   izeta = 1
                 lambda =    1.000000
                     rc =    6.790259
                 energy =   -0.258578
                kinetic =    1.481412
    potential(screened) =   -1.739989
       potential(ionic) =   -3.657461

   izeta = 2
                 rmatch =    4.608740
              splitnorm =    0.150000
                 energy =   -0.173757
                kinetic =    2.186690
    potential(screened) =   -2.360447
       potential(ionic) =   -4.464260

POLgen: Perturbative polarization orbital with L=  2

POLgen: Polarization orbital for state 2p

   izeta = 1
                     rc =    6.790259
                 energy =    0.684082
                kinetic =    1.471481
    potential(screened) =   -0.787399
       potential(ionic) =   -2.406985
atom: Total number of Sankey-type orbitals: 13

atm_pop: Valence configuration (for local Pseudopot. screening):
 2s( 2.00)                                                            
 2p( 1.00)                                                            
Vna: chval, zval:    3.00000   3.00000

Vna:  Cut-off radius for the neutral-atom potential:   6.790259
comcore: Pseudo-core radius Rcore=  2.122997

atom: _________________________________________________________________________

prinput: Basis input ----------------------------------------------------------

PAO.BasisType split     

%block ChemicalSpeciesLabel
    1    6 C                       # Species index, atomic number, species label
    2    5 B                       # Species index, atomic number, species label
%endblock ChemicalSpeciesLabel

%block PAO.Basis                 # Define Basis set
C                     2                    # Species label, number of l-shells
 n=2   0   2                         # n, l, Nzeta 
   4.633      3.432   
   1.000      1.000   
 n=2   1   2 P   1                   # n, l, Nzeta, Polarization, NzetaPol
   5.659      3.653   
   1.000      1.000   
B                     2                    # Species label, number of l-shells
 n=2   0   2                         # n, l, Nzeta 
   5.422      4.223   
   1.000      1.000   
 n=2   1   2 P   1                   # n, l, Nzeta, Polarization, NzetaPol
   6.790      4.609   
   1.000      1.000   
%endblock PAO.Basis

prinput: ----------------------------------------------------------------------

coor:   Atomic-coordinates input format  =     Cartesian coordinates
coor:                                          (in Angstroms)

siesta: Atomic coordinates (Bohr) and species
siesta:      2.23554   1.32097   0.00000  1        1
siesta:      4.56367   2.66461   0.00000  1        2
siesta:     32.50328  21.48508   0.00000  1        3
siesta:     34.83141  22.82873   0.00000  1        4
siesta:     34.83116  17.45226   0.00000  1        5
siesta:     37.15930  18.79590   0.00000  1        6
siesta:     32.50291  13.41944   0.00000  1        7
siesta:     34.83104  14.76308   0.00000  1        8
siesta:     30.17465   9.38661   0.00000  1        9
siesta:     32.50278  10.73026   0.00000  1       10
siesta:     27.84639   5.35379   0.00000  1       11
siesta:     30.17453   6.69743   0.00000  1       12
siesta:     27.84714  21.48508   0.00000  1       13
siesta:     30.17527  22.82873   0.00000  1       14
siesta:      6.89168   1.32097   0.00000  1       15
siesta:      9.21981   2.66461   0.00000  1       16
siesta:     11.54782   1.32097   0.00000  1       17
siesta:     13.87595   2.66461   0.00000  1       18
siesta:     16.20396   1.32097   0.00000  1       19
siesta:     18.53210   2.66461   0.00000  1       20
siesta:     20.86199   1.32097   0.00000  1       21
siesta:     23.19013   2.66461   0.00000  1       22
siesta:     25.51813   1.32097   0.00000  1       23
siesta:     27.84627   2.66461   0.00000  1       24
siesta:      4.56380   5.35379   0.00000  1       25
siesta:      6.89193   6.69743   0.00000  1       26
siesta:      9.21994   5.35379   0.00000  1       27
siesta:     11.54807   6.69743   0.00000  1       28
siesta:     13.87608   5.35379   0.00000  1       29
siesta:     16.20421   6.69743   0.00000  1       30
siesta:     18.53411   5.35379   0.00000  1       31
siesta:     20.86224   6.69743   0.00000  1       32
siesta:     23.19025   5.35379   0.00000  1       33
siesta:     25.51838   6.69743   0.00000  1       34
siesta:      6.89205   9.38661   0.00000  1       35
siesta:      9.22019  10.73026   0.00000  1       36
siesta:     11.54820   9.38661   0.00000  1       37
siesta:     13.87633  10.73026   0.00000  1       38
siesta:     16.20434   9.38661   0.00000  1       39
siesta:     18.53247  10.73026   0.00000  1       40
siesta:     20.86237   9.38661   0.00000  1       41
siesta:     23.19050  10.73026   0.00000  1       42
siesta:      9.22031  13.41944   0.00000  1       43
siesta:     11.54845  14.76308   0.00000  1       44
siesta:     13.87645  13.41944   0.00000  1       45
siesta:     11.54857  17.45226   0.00000  1       46
siesta:     13.87670  18.79590   0.00000  1       47
siesta:     18.53284  18.79590   0.00000  1       48
siesta:     13.87683  21.48508   0.00000  1       49
siesta:     16.20496  22.82873   0.00000  1       50
siesta:     18.53486  21.48508   0.00000  1       51
siesta:     20.86299  22.82873   0.00000  1       52
siesta:     25.51851   9.38661   0.00000  1       53
siesta:     27.84664  10.73026   0.00000  1       54
siesta:     23.19063  13.41944   0.00000  1       55
siesta:     25.51876  14.76308   0.00000  1       56
siesta:     20.86274  17.45226   0.00000  1       57
siesta:     23.19088  18.79590   0.00000  1       58
siesta:     27.84677  13.41944   0.00000  1       59
siesta:     30.17490  14.76308   0.00000  1       60
siesta:     25.51888  17.45226   0.00000  1       61
siesta:     27.84702  18.79590   0.00000  1       62
siesta:     23.19100  21.48508   0.00000  1       63
siesta:     25.51913  22.82873   0.00000  1       64
siesta:     30.17503  17.45226   0.00000  1       65
siesta:     32.50316  18.79590   0.00000  1       66
siesta:     37.16131  21.48508   0.00000  1       67
siesta:     39.48945  22.82873   0.00000  1       68
siesta:     16.20459  14.76308   0.00000  2       69
siesta:     18.53448  13.41944   0.00000  2       70
siesta:     20.86262  14.76308   0.00000  2       71
siesta:     16.20471  17.45226   0.00000  2       72

siesta: System type = slab      

initatomlists: Number of atoms, orbitals, and projectors:     72   936  1152

siesta: ******************** Simulation parameters ****************************
siesta:
siesta: The following are some of the parameters of the simulation.
siesta: A complete list of the parameters used, including default values,
siesta: can be found in file out.fdf
siesta:
redata: Non-Collinear-spin run           =     F
redata: SpinPolarized (Up/Down) run      =     F
redata: Number of spin components        =     1
redata: Long output                      =     F
redata: Number of Atomic Species         =        2
redata: Charge density info will appear in .RHO file
redata: Write Mulliken Pop.              =     NO
redata: Mesh Cutoff                      =   200.0000  Ry
redata: Net charge of the system         =     0.0000 |e|
redata: Max. number of SCF Iter          =      500
redata: SCF convergence failure will abort job
redata: Performing Pulay mixing using    =    10 iterations
redata: Mix DM in first SCF step ?       =     F
redata: Write Pulay info on disk?        =     F
redata: Discard 1st Pulay DM after  kick =     F
redata: New DM Mixing Weight             =     0.0500
redata: New DM Occupancy tolerance       = 0.000000000001
redata: No kicks to SCF
redata: DM Mixing Weight for Kicks       =     0.5000
redata: DM Tolerance for SCF             =     0.000100
redata: Require Energy convergence for SCF =     F
redata: DM Energy tolerance for SCF      =     0.000100 eV
redata: Require Harris convergence for SCF =     F
redata: DM Harris energy tolerance for SCF =     0.000100 eV
redata: Using Saved Data (generic)   =     F
redata: Use continuation files for DM    =     T
redata: Neglect nonoverlap interactions  =     F
redata: Method of Calculation            =     Diagonalization
redata: Divide and Conquer               =     T
redata: Electronic Temperature           =     0.0019  Ry
redata: Fix the spin of the system       =     F
redata: Dynamics option                  =     Verlet MD run
redata: Initial MD time step             =        1
redata:   Final MD time step             =        1
redata: Length of MD time step           =     1.0000  fs
redata: Initial Temperature of MD run    =     0.0000  K
redata: Perform a MD quench              =     F
redata: ***********************************************************************
Total number of electrons:   284.000000
Total ionic charge:   284.000000

* ProcessorY, Blocksize:    2  24

k-point displ. along   1 input, could be:     0.00    0.50
k-point displ. along   2 input, could be:     0.00    0.50
 Kpoints in:          364 . Kpoints trimmed:          352

siesta: k-grid: Number of k-points =   352
siesta: k-grid: Cutoff (effective) =     5.000 Ang
siesta: k-grid: Supercell and displacements
siesta: k-grid:   26   0   0      0.000
siesta: k-grid:    0  26   0      0.000
siesta: k-grid:    0   0   1      0.000
Naive supercell factors:     2    2    2

superc: Internal auxiliary supercell:     2 x     2 x     2  =       8
superc: Number of atoms, orbitals, and projectors:    576   7488   9216

* Maximum dynamic memory allocated =     6 MB

siesta:                 ==============================
                            Begin MD step =      1
                        ==============================

superc: Internal auxiliary supercell:     2 x     2 x     2  =       8
superc: Number of atoms, orbitals, and projectors:    576   7488   9216

outcell: Unit cell vectors (Ang):
       14.785000    0.000000    0.000000
        7.393000   12.805052    0.000000
        0.000000    0.000000   10.000000

outcell: Cell vector modules (Ang)   :   14.785000   14.786000   10.000000
outcell: Cell angles (23,13,12) (deg):     90.0000     90.0000     60.0000
outcell: Cell volume (Ang**3)        :   1893.2269
New_DM. Step:     1
Initializing Density Matrix...

iodm: Reading Density Matrix from files

InitMesh: MESH =   120 x   120 x    90 =     1296000
InitMesh: Mesh cutoff (required, used) =   200.000   223.865 Ry

* Maximum dynamic memory allocated =   203 MB

stepf: Fermi-Dirac step function

siesta: Program's energy decomposition (eV):
siesta: Ebs     =     -3833.798690
siesta: Eions   =     17890.784226
siesta: Ena     =      3884.655185
siesta: Ekin    =      7639.336779
siesta: Enl     =      -746.028798
siesta: DEna    =      -306.690885
siesta: DUscf   =        29.656148
siesta: DUext   =         0.000000
siesta: Exc     =     -4053.077502
siesta: eta*DQ  =         0.000000
siesta: Emadel  =         0.000000
siesta: Emeta   =         0.000000
siesta: Emolmec =         0.000000
siesta: Ekinion =         0.000000
siesta: Eharris =    -11442.932592
siesta: Etot    =    -11442.933299
siesta: FreeEng =    -11442.933299

siesta: iscf   Eharris(eV)      E_KS(eV)   FreeEng(eV)   dDmax  Ef(eV)
siesta:    1   -11442.9326   -11442.9333   -11442.9333  0.0003 -5.0789
timer: Routine,Calls,Time,% = IterSCF        1    6655.313  99.82
elaps: Routine,Calls,Wall,% = IterSCF        1     832.896  99.82
siesta:    2   -11442.9318   -11442.9326   -11442.9768  0.0034 -5.0757
siesta:    3   -11442.9325   -11442.9332   -11442.9782  0.0001 -5.0787

siesta: E_KS(eV) =           -11442.9329

siesta: E_KS - E_eggbox =    -11442.9329

siesta: Atomic forces (eV/Ang):
----------------------------------------
   Tot    0.184484   -0.260654    0.000000
----------------------------------------
   Max    5.147690
   Res    0.928543    sqrt( Sum f_i^2 / 3N )
----------------------------------------
   Max    5.147690    constrained

Stress-tensor-Voigt (kbar):      -72.24      -72.63       -0.11       -1.69        0.00        0.00
(Free)E + p*V (eV/cell)   -11385.8713
Target enthalpy (eV/cell)   -11442.9772

siesta: Stress tensor (static) (eV/Ang**3):
        -0.045090   -0.001056    0.000000
        -0.001056   -0.045332    0.000000
         0.000000    0.000000   -0.000068

siesta: Pressure (static):         48.32740057  kBar

siesta: Stress tensor (total) (eV/Ang**3):
        -0.045090   -0.001056    0.000000
        -0.001056   -0.045332    0.000000
         0.000000    0.000000   -0.000068

siesta: Pressure (total):         48.32740057  kBar

siesta: Temp_ion =       0.000 K

* Maximum dynamic memory allocated =   217 MB
Computing bands...

siesta: Program's energy decomposition (eV):
siesta: Ebs     =     -3833.795831
siesta: Eions   =     17890.784226
siesta: Ena     =      3884.655185
siesta: Ekin    =      7639.342797
siesta: Enl     =      -746.029777
siesta: DEna    =      -306.694900
siesta: DUscf   =        29.656808
siesta: DUext   =         0.000000
siesta: Exc     =     -4053.078828
siesta: eta*DQ  =         0.000000
siesta: Emadel  =         0.000000
siesta: Emeta   =         0.000000
siesta: Emolmec =         0.000000
siesta: Ekinion =         0.000000
siesta: Eharris =    -11442.932544
siesta: Etot    =    -11442.932941
siesta: FreeEng =    -11442.977183

siesta: Final energy (eV):
siesta:  Band Struct. =   -3833.795831
siesta:       Kinetic =    7639.342797
siesta:       Hartree =   22497.916246
siesta:    Ext. field =       0.000000
siesta:   Exch.-corr. =   -4053.078828
siesta:  Ion-electron =  -52009.271194
siesta:       Ion-ion =   14482.158038
siesta:       Ekinion =       0.000000
siesta:         Total =  -11442.932941

siesta: Atomic forces (eV/Ang):
siesta:      1   -0.012291   -0.451683    0.000000
siesta:      2    0.139766   -0.047044    0.000000
siesta:      3    0.064097    0.185826    0.000000
siesta:      4   -0.129009    0.065292    0.000000
siesta:      5   -0.225970   -0.015351    0.000000
siesta:      6    0.148717   -0.184016    0.000000
siesta:      7    0.083627    0.208467    0.000000
siesta:      8   -0.229675   -0.009824    0.000000
siesta:      9    0.130366   -0.132419    0.000000
siesta:     10    0.024841   -0.142656    0.000000
siesta:     11   -0.232588   -0.148960    0.000000
siesta:     12    0.150674    0.139566    0.000000
siesta:     13   -0.101866    0.093719    0.000000
siesta:     14    0.057431    0.092078    0.000000
siesta:     15    0.013672   -0.035324    0.000000
siesta:     16    0.096940    0.070211    0.000000
siesta:     17    0.023212    0.087798    0.000000
siesta:     18   -0.171019    0.126561    0.000000
siesta:     19    0.114916   -0.111808    0.000000
siesta:     20    0.051638   -0.083021    0.000000
siesta:     21   -0.157161   -0.087753    0.000000
siesta:     22    0.149365    0.173051    0.000000
siesta:     23   -0.001804    0.100478    0.000000
siesta:     24   -0.195343    0.116366    0.000000
siesta:     25    0.019626    0.081243    0.000000
siesta:     26   -0.124372    0.051499    0.000000
siesta:     27    0.203459   -0.093906    0.000000
siesta:     28   -0.108419   -0.229046    0.000000
siesta:     29   -0.136036   -0.220280    0.000000
siesta:     30   -0.105323    0.250622    0.000000
siesta:     31   -0.006383    0.070767    0.000000
siesta:     32    0.061676    0.168941    0.000000
siesta:     33    0.122468   -0.225266    0.000000
siesta:     34    0.108786   -0.200901    0.000000
siesta:     35   -0.079853   -0.032869    0.000000
siesta:     36    0.044225    0.064265    0.000000
siesta:     37    0.296982    0.001008    0.000000
siesta:     38   -1.240601    0.384450    0.000000
siesta:     39    0.958570   -0.895810    0.000000
siesta:     40   -0.415983   -3.422428    0.000000
siesta:     41   -0.910418   -0.693710    0.000000
siesta:     42    0.972437    0.527587    0.000000
siesta:     43    0.103556    0.134083    0.000000
siesta:     44   -0.156991   -1.110027    0.000000
siesta:     45   -2.744296   -2.102376    0.000000
siesta:     46   -0.040940    1.096768    0.000000
siesta:     47   -3.165343    2.086480    0.000000
siesta:     48    3.229685    2.714754    0.000000
siesta:     49   -0.668568   -0.437384    0.000000
siesta:     50    0.195719    0.483602    0.000000
siesta:     51    0.502228   -0.113743    0.000000
siesta:     52   -0.099041    0.209220    0.000000
siesta:     53   -0.216537    0.003621    0.000000
siesta:     54   -0.110810    0.149143    0.000000
siesta:     55    3.400359   -1.699398    0.000000
siesta:     56   -0.019845   -0.817634    0.000000
siesta:     57    0.734710    4.115239    0.000000
siesta:     58   -0.375591    0.412490    0.000000
siesta:     59    0.102969    0.080179    0.000000
siesta:     60    0.120449    0.056852    0.000000
siesta:     61    0.327159    0.357126    0.000000
siesta:     62   -0.368847   -0.206944    0.000000
siesta:     63    0.218427    0.009277    0.000000
siesta:     64   -0.008905    0.027927    0.000000
siesta:     65    0.214653   -0.129965    0.000000
siesta:     66    0.000336   -0.275699    0.000000
siesta:     67    0.139226   -0.020662    0.000000
siesta:     68    0.008348    0.155828    0.000000
siesta:     69   -4.896101   -1.881433    0.000000
siesta:     70    0.814550   -5.147690    0.000000
siesta:     71    3.329389    2.086988    0.000000
siesta:     72    0.161158    3.907000    0.000000
siesta: ----------------------------------------
siesta:    Tot    0.184484   -0.260654    0.000000

siesta: Stress tensor (static) (eV/Ang**3):
siesta:    -0.045090   -0.001056    0.000000
siesta:    -0.001056   -0.045332    0.000000
siesta:     0.000000    0.000000   -0.000068

siesta: Cell volume =       1893.226895 Ang**3

siesta: Pressure (static):
siesta:                Solid            Molecule  Units
siesta:           0.00032852          0.00017180  Ry/Bohr**3
siesta:           0.03016326          0.01577451  eV/Ang**3
siesta:          48.32740057         25.27382207  kBar
(Free)E+ p_basis*V_orbitals  =      -11410.975751
(Free)Eharris+ p_basis*V_orbitals  =      -11410.975081

siesta: Electric dipole (a.u.)  =    0.000000    0.000000    0.000000
siesta: Electric dipole (Debye) =    0.000000    0.000000    0.000000

* Maximum dynamic memory allocated : Node    0 =   213 MB
* Maximum dynamic memory allocated : Node    1 =    77 MB
* Maximum dynamic memory allocated : Node    2 =    79 MB
* Maximum dynamic memory allocated : Node    3 =   202 MB
* Maximum dynamic memory allocated : Node    4 =   217 MB
* Maximum dynamic memory allocated : Node    5 =    79 MB
* Maximum dynamic memory allocated : Node    6 =    82 MB
* Maximum dynamic memory allocated : Node    7 =   200 MB

* Maximum memory occured during matrixMtoO                    

timer: CPU execution times:
timer:  Routine       Calls   Time/call    Tot.time        %
timer:  siesta            1   20804.835   20804.835   100.00
timer:  Setup             1       3.137       3.137     0.02
timer:  bands             3     270.447     811.341     3.90
timer:  writewave         1       0.018       0.018     0.00
timer:  KSV_init          1       0.005       0.005     0.00
timer:  IterMD            1   19981.703   19981.703    96.04
timer:  hsparse           1       0.396       0.396     0.00
timer:  overlap           1       5.103       5.103     0.02
timer:  IterSCF           3    6597.817   19793.451    95.14
timer:  kinefsm           2       2.655       5.310     0.03
timer:  nlefsm            2      19.695      39.390     0.19
timer:  DHSCF             4     116.309     465.236     2.24
timer:  DHSCF1            1       0.985       0.985     0.00
timer:  DHSCF2            1      40.884      40.884     0.20
timer:  REORD            34       0.010       0.352     0.00
timer:  POISON            5       2.278      11.392     0.05
timer:  DHSCF3            4      97.060     388.240     1.87
timer:  rhoofd            4      18.538      74.153     0.36
timer:  cellXC            4       3.502      14.010     0.07
timer:  vmat              4      49.820     199.282     0.96
timer:  MolMec            2       0.000       0.000     0.00
timer:  diagon            3    6474.705   19424.116    93.36
timer:  c-eigval       1177       6.701    7886.867    37.91
timer:  c-buildHS      1177       0.120     141.613     0.68
timer:  cdiag          2233       6.872   15345.516    73.76
timer:  cdiag1         2233       0.428     955.467     4.59
timer:  cdiag2         2233       1.908    4260.395    20.48
timer:  cdiag3         2233       3.962    8847.406    42.53
timer:  cdiag4         2233       0.193     431.411     2.07
timer:  c-eigvec       1056       7.269    7676.248    36.90
timer:  c-buildD       1056       4.416    4663.289    22.41
timer:  DHSCF4            1      34.883      34.883     0.17
timer:  dfscf             1      32.375      32.375     0.16
timer:  overfsm           1       0.410       0.410     0.00
timer:  optical           1       7.565       7.565     0.04
  

elaps: ELAPSED times:
elaps:  Routine       Calls   Time/call    Tot.time        %
elaps:  siesta            1    2603.556    2603.556   100.00
elaps:  Setup             1       0.391       0.391     0.01
elaps:  bands             3      33.856     101.569     3.90
elaps:  writewave         1       0.002       0.002     0.00
elaps:  KSV_init          1       0.000       0.000     0.00
elaps:  IterMD            1    2500.571    2500.571    96.04
elaps:  hsparse           1       0.049       0.049     0.00
elaps:  overlap           1       0.526       0.526     0.02
elaps:  IterSCF           3     825.674    2477.022    95.14
elaps:  kinefsm           2       0.277       0.553     0.02
elaps:  nlefsm            2       2.426       4.853     0.19
elaps:  DHSCF             4      15.384      61.535     2.36
elaps:  DHSCF1            1       0.127       0.127     0.00
elaps:  DHSCF2            1       5.115       5.115     0.20
elaps:  REORD            34       0.001       0.046     0.00
elaps:  POISON            5       0.287       1.435     0.06
elaps:  DHSCF3            4      12.143      48.571     1.87
elaps:  rhoofd            4       3.944      15.777     0.61
elaps:  cellXC            4       0.437       1.750     0.07
elaps:  vmat              4       6.233      24.933     0.96
elaps:  MolMec            2       0.000       0.000     0.00
elaps:  diagon            3     810.297    2430.890    93.37
elaps:  c-eigval       1177       0.838     986.787    37.90
elaps:  c-buildHS      1177       0.016      19.358     0.74
elaps:  cdiag          2233       0.847    1891.408    72.65
elaps:  cdiag1         2233       0.053     118.636     4.56
elaps:  cdiag2         2233       0.239     533.063    20.47
elaps:  cdiag3         2233       0.496    1108.536    42.58
elaps:  cdiag4         2233       0.025      54.884     2.11
elaps:  c-eigvec       1056       0.886     936.091    35.95
elaps:  c-buildD       1056       0.576     608.237    23.36
elaps:  DHSCF4            1       7.691       7.691     0.30
elaps:  dfscf             1       7.219       7.219     0.28
elaps:  overfsm           1       0.051       0.051     0.00
elaps:  optical           1       0.000       0.000     0.00
  
>> End of run:   8-DEC-2015  15:28:14
