Siesta Version:                                        siesta-3.2-pl-3
Architecture  : x86_64-unknown-linux-gnu--unknown
Compiler flags: mpiifort -g -O2 -fPIC -xSSE4.1 -fp-model source -shared-intel 
PARALLEL version

* Running on    8 nodes in parallel
>> Start of run:  27-NOV-2015   5:59:07

                           ***********************       
                           *  WELCOME TO SIESTA  *       
                           ***********************       

reinit: Reading from standard input
************************** Dump of input data file ****************************
#(1) General system descriptors
SystemName            GRP_doping    # Descriptive name of the system
SystemLabel           GRP_doping    # Short name for naming files
%include STRUCT.fdf
%include KPT.fdf
%include BASIS.fdf
#%include TS.fdf # for transiesta calculation
#(4) DFT, Grid, SCF
XC.functional         GGA           # LDA or GGA (default = LDA)
XC.authors            PBE           # CA (Ceperley-Aldr) = PZ
                                    #    (Perdew-Zunger) - LDA - Default
                                    # PW92 (Perdew-Wang-92) - LDA
                                    # PBE (Perdew-Burke-Ernzerhof) - GGA
MeshCutoff            200.000000    Ry      # Default: 50.0 Ry ~ 0.444 Bohr
                                    #         100.0 Ry ~ 0.314 Bohr
MaxSCFIterations      500           # Default: 50
DM.MixingWeight       0.05          # Default: 0.25
DM.NumberPulay        10            # Default: 0
DM.PulayOnFile        F             # SystemLabel.P1, SystemLabel.P2
DM.Tolerance          1.d-4         # Default: 1.d-4
DM.UseSaveDM          .true.        # because of the bug
SCFMustConverge       .true.
NeglNonOverlapInt     F             # Default: F
#(5) Eigenvalue problem: order-N or diagonalization
SolutionMethod        Diagon        # or Transiesta
ElectronicTemperature 300.0 K       # Default: 300.0 K
#(6) Molecular dynamics and relaxations
#MD.TypeOfRun          CG            # Type of dynamics:
#MD.VariableCell       F
#MD.NumCGsteps         0           # 0 for single-point / 100 for gopt
#MD.MaxCGDispl         0.2 Bohr      # Default: 0.2 Bohr
#MD.MaxForceTol        0.02 eV/Ang   # Default: 0.04 eV/Ang
#MD.MaxStressTol       1.0 GPa       # Default: 1.0 GPa
# Geometry Constraints
#%block GeometryConstraints
#	position from 1 to 44
#%endblock GeometryConstraints
************************** End of input data file *****************************

reinit: -----------------------------------------------------------------------
reinit: System Name: GRP_doping
reinit: -----------------------------------------------------------------------
reinit: System Label: GRP_doping                                                  
reinit: -----------------------------------------------------------------------

initatom: Reading input for the pseudopotentials and atomic orbitals ----------
 Species number:            1  Label: B Atomic number:           5
 Species number:            2  Label: C Atomic number:           6
Ground state valence configuration:   2s02  2p01
Reading pseudopotential information in formatted form from B.psf

Valence configuration for pseudopotential generation:
2s( 2.00) rc: 1.74
2p( 1.00) rc: 1.74
3d( 0.00) rc: 1.74
4f( 0.00) rc: 1.74
Ground state valence configuration:   2s02  2p02
Reading pseudopotential information in formatted form from C.psf

Valence configuration for pseudopotential generation:
2s( 2.00) rc: 1.54
2p( 2.00) rc: 1.54
3d( 0.00) rc: 1.54
4f( 0.00) rc: 1.54
For B, standard SIESTA heuristics set lmxkb to 3
 (one more than the basis l, including polarization orbitals).
Use PS.lmax or PS.KBprojectors blocks to override.
For C, standard SIESTA heuristics set lmxkb to 3
 (one more than the basis l, including polarization orbitals).
Use PS.lmax or PS.KBprojectors blocks to override.

<basis_specs>
===============================================================================
B                    Z=   5    Mass=  10.810        Charge= 0.17977+309
Lmxo=1 Lmxkb= 3    BasisType=split      Semic=F
L=0  Nsemic=0  Cnfigmx=2
          n=1  nzeta=2  polorb=0
            splnorm:   0.15000    
               vcte:    0.0000    
               rinn:    0.0000    
                rcs:    0.0000      0.0000    
            lambdas:    1.0000      1.0000    
L=1  Nsemic=0  Cnfigmx=2
          n=1  nzeta=2  polorb=1
            splnorm:   0.15000    
               vcte:    0.0000    
               rinn:    0.0000    
                rcs:    0.0000      0.0000    
            lambdas:    1.0000      1.0000    
-------------------------------------------------------------------------------
L=0  Nkbl=1  erefs: 0.17977+309
L=1  Nkbl=1  erefs: 0.17977+309
L=2  Nkbl=1  erefs: 0.17977+309
L=3  Nkbl=1  erefs: 0.17977+309
===============================================================================
</basis_specs>

atom: Called for B                     (Z =   5)

read_vps: Pseudopotential generation method:
read_vps: ATM3      Troullier-Martins                       
Total valence charge:    3.00000

read_vps: Pseudopotential includes a core correction:
read_vps: Pseudo-core for xc-correction

xc_check: Exchange-correlation functional:
xc_check: GGA Perdew, Burke & Ernzerhof 1996
V l=0 = -2*Zval/r beyond r=  1.7165
V l=1 = -2*Zval/r beyond r=  1.7165
V l=2 = -2*Zval/r beyond r=  1.7165
V l=3 = -2*Zval/r beyond r=  1.6951
All V_l potentials equal beyond r=  1.7165
This should be close to max(r_c) in ps generation
All pots = -2*Zval/r beyond r=  1.7165

VLOCAL1: 99.0% of the norm of Vloc inside     14.733 Ry
VLOCAL1: 99.9% of the norm of Vloc inside     33.577 Ry
atom: Maximum radius for 4*pi*r*r*local-pseudopot. charge    2.04484
atom: Maximum radius for r*vlocal+2*Zval:    1.75994
GHOST: No ghost state for L =  0
GHOST: No ghost state for L =  1
GHOST: No ghost state for L =  2
GHOST: No ghost state for L =  3

KBgen: Kleinman-Bylander projectors: 
   l= 0   rc=  1.897051   el= -0.693730   Ekb=  4.595746   kbcos=  0.286105
   l= 1   rc=  1.920920   el= -0.265236   Ekb= -2.350715   kbcos= -0.315747
   l= 2   rc=  2.044840   el=  0.002055   Ekb= -0.690767   kbcos= -0.013822
   l= 3   rc=  2.149707   el=  0.003188   Ekb= -0.315358   kbcos= -0.002055

KBgen: Total number of  Kleinman-Bylander projectors:   16
atom: -------------------------------------------------------------------------

atom: SANKEY-TYPE ORBITALS:
atom: Selected multiple-zeta basis: split     

SPLIT: Orbitals with angular momentum L= 0

SPLIT: Basis orbitals for state 2s

SPLIT: PAO cut-off radius determined from an
SPLIT: energy shift=  0.007350 Ry

   izeta = 1
                 lambda =    1.000000
                     rc =    5.422032
                 energy =   -0.686029
                kinetic =    0.576707
    potential(screened) =   -1.262736
       potential(ionic) =   -3.271094

   izeta = 2
                 rmatch =    4.222573
              splitnorm =    0.150000
                 energy =   -0.602132
                kinetic =    0.858975
    potential(screened) =   -1.461107
       potential(ionic) =   -3.582536

SPLIT: Orbitals with angular momentum L= 1

SPLIT: Basis orbitals for state 2p

SPLIT: PAO cut-off radius determined from an
SPLIT: energy shift=  0.007350 Ry

   izeta = 1
                 lambda =    1.000000
                     rc =    6.790259
                 energy =   -0.258578
                kinetic =    1.481412
    potential(screened) =   -1.739989
       potential(ionic) =   -3.657461

   izeta = 2
                 rmatch =    4.608740
              splitnorm =    0.150000
                 energy =   -0.173757
                kinetic =    2.186690
    potential(screened) =   -2.360447
       potential(ionic) =   -4.464260

POLgen: Perturbative polarization orbital with L=  2

POLgen: Polarization orbital for state 2p

   izeta = 1
                     rc =    6.790259
                 energy =    0.684082
                kinetic =    1.471481
    potential(screened) =   -0.787399
       potential(ionic) =   -2.406985
atom: Total number of Sankey-type orbitals: 13

atm_pop: Valence configuration (for local Pseudopot. screening):
 2s( 2.00)                                                            
 2p( 1.00)                                                            
Vna: chval, zval:    3.00000   3.00000

Vna:  Cut-off radius for the neutral-atom potential:   6.790259
comcore: Pseudo-core radius Rcore=  2.122997

atom: _________________________________________________________________________

<basis_specs>
===============================================================================
C                    Z=   6    Mass=  12.010        Charge= 0.17977+309
Lmxo=1 Lmxkb= 3    BasisType=split      Semic=F
L=0  Nsemic=0  Cnfigmx=2
          n=1  nzeta=2  polorb=0
            splnorm:   0.15000    
               vcte:    0.0000    
               rinn:    0.0000    
                rcs:    0.0000      0.0000    
            lambdas:    1.0000      1.0000    
L=1  Nsemic=0  Cnfigmx=2
          n=1  nzeta=2  polorb=1
            splnorm:   0.15000    
               vcte:    0.0000    
               rinn:    0.0000    
                rcs:    0.0000      0.0000    
            lambdas:    1.0000      1.0000    
-------------------------------------------------------------------------------
L=0  Nkbl=1  erefs: 0.17977+309
L=1  Nkbl=1  erefs: 0.17977+309
L=2  Nkbl=1  erefs: 0.17977+309
L=3  Nkbl=1  erefs: 0.17977+309
===============================================================================
</basis_specs>

atom: Called for C                     (Z =   6)

read_vps: Pseudopotential generation method:
read_vps: ATM3      Troullier-Martins                       
Total valence charge:    4.00000

read_vps: Pseudopotential includes a core correction:
read_vps: Pseudo-core for xc-correction

xc_check: Exchange-correlation functional:
xc_check: GGA Perdew, Burke & Ernzerhof 1996
V l=0 = -2*Zval/r beyond r=  1.5227
V l=1 = -2*Zval/r beyond r=  1.5227
V l=2 = -2*Zval/r beyond r=  1.5227
V l=3 = -2*Zval/r beyond r=  1.5038
All V_l potentials equal beyond r=  1.5227
This should be close to max(r_c) in ps generation
All pots = -2*Zval/r beyond r=  1.5227

VLOCAL1: 99.0% of the norm of Vloc inside     18.722 Ry
VLOCAL1: 99.9% of the norm of Vloc inside     42.668 Ry
atom: Maximum radius for 4*pi*r*r*local-pseudopot. charge    1.83678
atom: Maximum radius for r*vlocal+2*Zval:    1.58088
GHOST: No ghost state for L =  0
GHOST: No ghost state for L =  1
GHOST: No ghost state for L =  2
GHOST: No ghost state for L =  3

KBgen: Kleinman-Bylander projectors: 
   l= 0   rc=  1.704034   el= -1.009801   Ekb=  5.335044   kbcos=  0.316824
   l= 1   rc=  1.704034   el= -0.388707   Ekb= -3.785862   kbcos= -0.366464
   l= 2   rc=  1.791422   el=  0.001971   Ekb= -0.970471   kbcos= -0.009212
   l= 3   rc=  1.859892   el=  0.003065   Ekb= -0.399525   kbcos= -0.001223

KBgen: Total number of  Kleinman-Bylander projectors:   16
atom: -------------------------------------------------------------------------

atom: SANKEY-TYPE ORBITALS:
atom: Selected multiple-zeta basis: split     

SPLIT: Orbitals with angular momentum L= 0

SPLIT: Basis orbitals for state 2s

SPLIT: PAO cut-off radius determined from an
SPLIT: energy shift=  0.007350 Ry

   izeta = 1
                 lambda =    1.000000
                     rc =    4.632753
                 energy =   -1.002270
                kinetic =    0.855760
    potential(screened) =   -1.858031
       potential(ionic) =   -5.417575

   izeta = 2
                 rmatch =    3.431921
              splitnorm =    0.150000
                 energy =   -0.867111
                kinetic =    1.300804
    potential(screened) =   -2.167915
       potential(ionic) =   -5.962684

SPLIT: Orbitals with angular momentum L= 1

SPLIT: Basis orbitals for state 2p

SPLIT: PAO cut-off radius determined from an
SPLIT: energy shift=  0.007350 Ry

   izeta = 1
                 lambda =    1.000000
                     rc =    5.658549
                 energy =   -0.381140
                kinetic =    2.399701
    potential(screened) =   -2.780841
       potential(ionic) =   -6.206085

   izeta = 2
                 rmatch =    3.653288
              splitnorm =    0.150000
                 energy =   -0.249149
                kinetic =    3.542762
    potential(screened) =   -3.791911
       potential(ionic) =   -7.581078

POLgen: Perturbative polarization orbital with L=  2

POLgen: Polarization orbital for state 2p

   izeta = 1
                     rc =    5.658549
                 energy =    1.109913
                kinetic =    2.304789
    potential(screened) =   -1.194876
       potential(ionic) =   -4.013592
atom: Total number of Sankey-type orbitals: 13

atm_pop: Valence configuration (for local Pseudopot. screening):
 2s( 2.00)                                                            
 2p( 2.00)                                                            
Vna: chval, zval:    4.00000   4.00000

Vna:  Cut-off radius for the neutral-atom potential:   5.658549
comcore: Pseudo-core radius Rcore=  1.791422

atom: _________________________________________________________________________

prinput: Basis input ----------------------------------------------------------

PAO.BasisType split     

%block ChemicalSpeciesLabel
    1    5 B                       # Species index, atomic number, species label
    2    6 C                       # Species index, atomic number, species label
%endblock ChemicalSpeciesLabel

%block PAO.Basis                 # Define Basis set
B                     2                    # Species label, number of l-shells
 n=2   0   2                         # n, l, Nzeta 
   5.422      4.223   
   1.000      1.000   
 n=2   1   2 P   1                   # n, l, Nzeta, Polarization, NzetaPol
   6.790      4.609   
   1.000      1.000   
C                     2                    # Species label, number of l-shells
 n=2   0   2                         # n, l, Nzeta 
   4.633      3.432   
   1.000      1.000   
 n=2   1   2 P   1                   # n, l, Nzeta, Polarization, NzetaPol
   5.659      3.653   
   1.000      1.000   
%endblock PAO.Basis

prinput: ----------------------------------------------------------------------

coor:   Atomic-coordinates input format  =     Cartesian coordinates
coor:                                          (in Angstroms)

siesta: Atomic coordinates (Bohr) and species
siesta:      2.23554   1.32097   0.00000  1        1
siesta:     11.54782   1.32097   0.00000  1        2
siesta:     20.86199   1.32097   0.00000  1        3
siesta:      6.89205   9.38661   0.00000  1        4
siesta:     16.20434   9.38661   0.00000  1        5
siesta:     11.54857  17.45226   0.00000  1        6
siesta:     25.51851   9.38661   0.00000  1        7
siesta:     20.86274  17.45226   0.00000  1        8
siesta:     37.16131  21.48508   0.00000  1        9
siesta:      4.56367   2.66461   0.00000  2       10
siesta:     32.50328  21.48508   0.00000  2       11
siesta:     34.83141  22.82873   0.00000  2       12
siesta:     34.83116  17.45226   0.00000  2       13
siesta:     37.15930  18.79590   0.00000  2       14
siesta:     32.50291  13.41944   0.00000  2       15
siesta:     34.83104  14.76308   0.00000  2       16
siesta:     30.17465   9.38661   0.00000  2       17
siesta:     32.50278  10.73026   0.00000  2       18
siesta:     27.84639   5.35379   0.00000  2       19
siesta:     30.17453   6.69743   0.00000  2       20
siesta:     27.84714  21.48508   0.00000  2       21
siesta:     30.17527  22.82873   0.00000  2       22
siesta:      6.89168   1.32097   0.00000  2       23
siesta:      9.21981   2.66461   0.00000  2       24
siesta:     13.87595   2.66461   0.00000  2       25
siesta:     16.20396   1.32097   0.00000  2       26
siesta:     18.53210   2.66461   0.00000  2       27
siesta:     23.19013   2.66461   0.00000  2       28
siesta:     25.51813   1.32097   0.00000  2       29
siesta:     27.84627   2.66461   0.00000  2       30
siesta:      4.56380   5.35379   0.00000  2       31
siesta:      6.89193   6.69743   0.00000  2       32
siesta:      9.21994   5.35379   0.00000  2       33
siesta:     11.54807   6.69743   0.00000  2       34
siesta:     13.87608   5.35379   0.00000  2       35
siesta:     16.20421   6.69743   0.00000  2       36
siesta:     18.53411   5.35379   0.00000  2       37
siesta:     20.86224   6.69743   0.00000  2       38
siesta:     23.19025   5.35379   0.00000  2       39
siesta:     25.51838   6.69743   0.00000  2       40
siesta:      9.22019  10.73026   0.00000  2       41
siesta:     11.54820   9.38661   0.00000  2       42
siesta:     13.87633  10.73026   0.00000  2       43
siesta:     18.53247  10.73026   0.00000  2       44
siesta:     20.86237   9.38661   0.00000  2       45
siesta:     23.19050  10.73026   0.00000  2       46
siesta:      9.22031  13.41944   0.00000  2       47
siesta:     11.54845  14.76308   0.00000  2       48
siesta:     13.87645  13.41944   0.00000  2       49
siesta:     16.20459  14.76308   0.00000  2       50
siesta:     18.53448  13.41944   0.00000  2       51
siesta:     20.86262  14.76308   0.00000  2       52
siesta:     13.87670  18.79590   0.00000  2       53
siesta:     16.20471  17.45226   0.00000  2       54
siesta:     18.53284  18.79590   0.00000  2       55
siesta:     13.87683  21.48508   0.00000  2       56
siesta:     16.20496  22.82873   0.00000  2       57
siesta:     18.53486  21.48508   0.00000  2       58
siesta:     20.86299  22.82873   0.00000  2       59
siesta:     27.84664  10.73026   0.00000  2       60
siesta:     23.19063  13.41944   0.00000  2       61
siesta:     25.51876  14.76308   0.00000  2       62
siesta:     23.19088  18.79590   0.00000  2       63
siesta:     27.84677  13.41944   0.00000  2       64
siesta:     30.17490  14.76308   0.00000  2       65
siesta:     25.51888  17.45226   0.00000  2       66
siesta:     27.84702  18.79590   0.00000  2       67
siesta:     23.19100  21.48508   0.00000  2       68
siesta:     25.51913  22.82873   0.00000  2       69
siesta:     30.17503  17.45226   0.00000  2       70
siesta:     32.50316  18.79590   0.00000  2       71
siesta:     39.48945  22.82873   0.00000  2       72

siesta: System type = slab      

initatomlists: Number of atoms, orbitals, and projectors:     72   936  1152

siesta: ******************** Simulation parameters ****************************
siesta:
siesta: The following are some of the parameters of the simulation.
siesta: A complete list of the parameters used, including default values,
siesta: can be found in file out.fdf
siesta:
redata: Non-Collinear-spin run           =     F
redata: SpinPolarized (Up/Down) run      =     F
redata: Number of spin components        =     1
redata: Long output                      =     F
redata: Number of Atomic Species         =        2
redata: Charge density info will appear in .RHO file
redata: Write Mulliken Pop.              =     NO
redata: Mesh Cutoff                      =   200.0000  Ry
redata: Net charge of the system         =     0.0000 |e|
redata: Max. number of SCF Iter          =      500
redata: SCF convergence failure will abort job
redata: Performing Pulay mixing using    =    10 iterations
redata: Mix DM in first SCF step ?       =     F
redata: Write Pulay info on disk?        =     F
redata: Discard 1st Pulay DM after  kick =     F
redata: New DM Mixing Weight             =     0.0500
redata: New DM Occupancy tolerance       = 0.000000000001
redata: No kicks to SCF
redata: DM Mixing Weight for Kicks       =     0.5000
redata: DM Tolerance for SCF             =     0.000100
redata: Require Energy convergence for SCF =     F
redata: DM Energy tolerance for SCF      =     0.000100 eV
redata: Require Harris convergence for SCF =     F
redata: DM Harris energy tolerance for SCF =     0.000100 eV
redata: Using Saved Data (generic)   =     F
redata: Use continuation files for DM    =     T
redata: Neglect nonoverlap interactions  =     F
redata: Method of Calculation            =     Diagonalization
redata: Divide and Conquer               =     T
redata: Electronic Temperature           =     0.0019  Ry
redata: Fix the spin of the system       =     F
redata: Dynamics option                  =     Verlet MD run
redata: Initial MD time step             =        1
redata:   Final MD time step             =        1
redata: Length of MD time step           =     1.0000  fs
redata: Initial Temperature of MD run    =     0.0000  K
redata: Perform a MD quench              =     F
redata: ***********************************************************************
Total number of electrons:   279.000000
Total ionic charge:   279.000000

* ProcessorY, Blocksize:    2  24

k-point displ. along   1 input, could be:     0.00    0.50
k-point displ. along   2 input, could be:     0.00    0.50
 Kpoints in:          364 . Kpoints trimmed:          352

siesta: k-grid: Number of k-points =   352
siesta: k-grid: Cutoff (effective) =     5.000 Ang
siesta: k-grid: Supercell and displacements
siesta: k-grid:   26   0   0      0.000
siesta: k-grid:    0  26   0      0.000
siesta: k-grid:    0   0   1      0.000
Naive supercell factors:     2    2    2

superc: Internal auxiliary supercell:     2 x     2 x     2  =       8
superc: Number of atoms, orbitals, and projectors:    576   7488   9216

* Maximum dynamic memory allocated =     6 MB

siesta:                 ==============================
                            Begin MD step =      1
                        ==============================

superc: Internal auxiliary supercell:     2 x     2 x     2  =       8
superc: Number of atoms, orbitals, and projectors:    576   7488   9216

outcell: Unit cell vectors (Ang):
       14.785000    0.000000    0.000000
        7.393000   12.805052    0.000000
        0.000000    0.000000   10.000000

outcell: Cell vector modules (Ang)   :   14.785000   14.786000   10.000000
outcell: Cell angles (23,13,12) (deg):     90.0000     90.0000     60.0000
outcell: Cell volume (Ang**3)        :   1893.2269
New_DM. Step:     1
Initializing Density Matrix...

InitMesh: MESH =   120 x   120 x    90 =     1296000
InitMesh: Mesh cutoff (required, used) =   200.000   223.865 Ry

* Maximum dynamic memory allocated =   207 MB

stepf: Fermi-Dirac step function

siesta: Program's energy decomposition (eV):
siesta: Ebs     =     -4462.396306
siesta: Eions   =     17250.500670
siesta: Ena     =      3769.684169
siesta: Ekin    =      5903.534022
siesta: Enl     =       294.187358
siesta: DEna    =        -0.000010
siesta: DUscf   =         0.000000
siesta: DUext   =         0.000000
siesta: Exc     =     -3961.774753
siesta: eta*DQ  =         0.000000
siesta: Emadel  =         0.000000
siesta: Emeta   =         0.000000
siesta: Emolmec =         0.000000
siesta: Ekinion =         0.000000
siesta: Eharris =    -11173.368613
siesta: Etot    =    -11244.869885
siesta: FreeEng =    -11244.869885

siesta: iscf   Eharris(eV)      E_KS(eV)   FreeEng(eV)   dDmax  Ef(eV)
siesta:    1   -11173.3686   -11244.8699   -11244.8699  1.9098 -8.1278
timer: Routine,Calls,Time,% = IterSCF        1    6798.752  99.83
elaps: Routine,Calls,Wall,% = IterSCF        1     850.855  99.83
siesta:    2   -11205.9247   -11124.4513   -11124.4851  0.8310 -3.6587
siesta:    3   -11154.4755   -11161.4783   -11161.5130  0.5014 -5.2977
siesta:    4   -11150.9208   -11160.1371   -11160.1551  0.4537 -5.4580
siesta:    5   -11147.4536   -11152.8077   -11152.8534  0.3178 -5.5978
siesta:    6   -11145.5604   -11149.0287   -11149.0676  0.2188 -5.7341
siesta:    7   -11148.2009   -11144.1534   -11144.1897  0.0890 -5.8720
siesta:    8   -11146.2366   -11143.0664   -11143.1005  0.0552 -5.8906
siesta:    9   -11145.8343   -11142.4788   -11142.5128  0.0335 -5.9045
siesta:   10   -11145.0810   -11142.8093   -11142.8381  0.0180 -5.9702
siesta:   11   -11145.0055   -11142.9476   -11142.9858  0.0145 -5.9730
siesta:   12   -11144.9454   -11143.3573   -11143.3944  0.0119 -5.9802
siesta:   13   -11144.9314   -11143.8510   -11143.8873  0.0087 -5.9842
siesta:   14   -11144.9279   -11144.0903   -11144.1274  0.0054 -5.9726
siesta:   15   -11144.9278   -11144.2953   -11144.3334  0.0031 -5.9649
siesta:   16   -11144.9274   -11144.7877   -11144.8253  0.0015 -5.9642
siesta:   17   -11144.9267   -11144.8757   -11144.9131  0.0012 -5.9635
siesta:   18   -11144.9263   -11144.9091   -11144.9466  0.0009 -5.9632
siesta:   19   -11144.9263   -11144.9020   -11144.9396  0.0006 -5.9635
siesta:   20   -11144.9264   -11144.9071   -11144.9446  0.0004 -5.9638
siesta:   21   -11144.9264   -11144.9123   -11144.9498  0.0002 -5.9638
siesta:   22   -11144.9263   -11144.9237   -11144.9612  0.0001 -5.9637
siesta:   23   -11144.9263   -11144.9258   -11144.9632  0.0001 -5.9637

siesta: E_KS(eV) =           -11144.9264

siesta: E_KS - E_eggbox =    -11144.9264

siesta: Atomic forces (eV/Ang):
----------------------------------------
   Tot    0.184887   -0.126748    0.000000
----------------------------------------
   Max    3.294036
   Res    1.168063    sqrt( Sum f_i^2 / 3N )
----------------------------------------
   Max    3.294036    constrained

Stress-tensor-Voigt (kbar):     -119.46     -117.95       -0.25       -1.01        0.00        0.00
(Free)E + p*V (eV/cell)   -11051.3540
Target enthalpy (eV/cell)   -11144.9639

siesta: Stress tensor (static) (eV/Ang**3):
        -0.074557   -0.000631    0.000000
        -0.000631   -0.073619    0.000000
         0.000000    0.000000   -0.000157

siesta: Pressure (static):         79.21985715  kBar

siesta: Stress tensor (total) (eV/Ang**3):
        -0.074557   -0.000631    0.000000
        -0.000631   -0.073619    0.000000
         0.000000    0.000000   -0.000157

siesta: Pressure (total):         79.21985715  kBar

siesta: Temp_ion =       0.000 K

* Maximum dynamic memory allocated =   223 MB

siesta: Program's energy decomposition (eV):
siesta: Ebs     =     -3691.397402
siesta: Eions   =     17250.500670
siesta: Ena     =      3769.684169
siesta: Ekin    =      7407.761094
siesta: Enl     =      -692.294071
siesta: DEna    =      -342.328411
siesta: DUscf   =        36.516826
siesta: DUext   =         0.000000
siesta: Exc     =     -4073.765359
siesta: eta*DQ  =         0.000000
siesta: Emadel  =         0.000000
siesta: Emeta   =         0.000000
siesta: Emolmec =         0.000000
siesta: Ekinion =         0.000000
siesta: Eharris =    -11144.926342
siesta: Etot    =    -11144.926423
siesta: FreeEng =    -11144.963897

siesta: Final energy (eV):
siesta:  Band Struct. =   -3691.397402
siesta:       Kinetic =    7407.761094
siesta:       Hartree =   21694.467085
siesta:    Ext. field =       0.000000
siesta:   Exch.-corr. =   -4073.765359
siesta:  Ion-electron =  -50128.687695
siesta:       Ion-ion =   13955.298453
siesta:       Ekinion =       0.000000
siesta:         Total =  -11144.926423

siesta: Atomic forces (eV/Ang):
siesta:      1    0.080547    0.024212    0.000000
siesta:      2    0.062965   -0.081100    0.000000
siesta:      3   -0.643372   -0.417057    0.000000
siesta:      4   -0.020840    0.064674    0.000000
siesta:      5   -0.020237   -0.028495    0.000000
siesta:      6   -0.654609   -0.338940    0.000000
siesta:      7    0.042726    0.047085    0.000000
siesta:      8    0.041683    0.003248    0.000000
siesta:      9   -1.017000   -0.562929    0.000000
siesta:     10    2.616616    1.511834    0.000000
siesta:     11    0.204577    0.398727    0.000000
siesta:     12   -3.145457   -1.561628    0.000000
siesta:     13    0.458387   -0.045723    0.000000
siesta:     14   -2.949750   -1.947880    0.000000
siesta:     15   -0.350468   -0.222952    0.000000
siesta:     16   -0.570297    0.257981    0.000000
siesta:     17    0.016043    1.049594    0.000000
siesta:     18   -2.913026    1.597555    0.000000
siesta:     19   -0.723087   -0.452758    0.000000
siesta:     20   -0.057266   -0.071505    0.000000
siesta:     21   -0.354597   -0.214966    0.000000
siesta:     22   -0.075546   -0.608110    0.000000
siesta:     23   -0.002800    0.987290    0.000000
siesta:     24   -2.750368    1.538740    0.000000
siesta:     25    2.878170    1.400636    0.000000
siesta:     26   -0.006701    1.419733    0.000000
siesta:     27   -2.797456    1.652441    0.000000
siesta:     28    2.815444    1.902766    0.000000
siesta:     29    0.706918    0.862556    0.000000
siesta:     30   -2.766975    1.712231    0.000000
siesta:     31    0.867437   -0.526685    0.000000
siesta:     32   -0.049962   -3.131986    0.000000
siesta:     33   -0.963639   -0.574161    0.000000
siesta:     34    0.084314    0.055964    0.000000
siesta:     35    1.001801   -0.378813    0.000000
siesta:     36    0.005614   -3.154352    0.000000
siesta:     37   -1.105978   -0.474313    0.000000
siesta:     38   -0.068853    0.047666    0.000000
siesta:     39    0.936843   -0.670452    0.000000
siesta:     40    0.062269   -3.032368    0.000000
siesta:     41    2.649681    1.798712    0.000000
siesta:     42    0.186239    1.031599    0.000000
siesta:     43   -2.749620    1.570494    0.000000
siesta:     44    2.791671    1.586349    0.000000
siesta:     45   -0.151451    1.024419    0.000000
siesta:     46   -2.620799    1.665488    0.000000
siesta:     47    1.238616   -0.745501    0.000000
siesta:     48    0.013062   -3.273144    0.000000
siesta:     49   -0.931895   -0.710565    0.000000
siesta:     50    0.029772   -0.077295    0.000000
siesta:     51    0.791954   -0.629500    0.000000
siesta:     52    0.123073   -3.079391    0.000000
siesta:     53    3.052574    1.490487    0.000000
siesta:     54   -0.097882    1.124020    0.000000
siesta:     55   -2.561596    1.572844    0.000000
siesta:     56    1.140292    0.147246    0.000000
siesta:     57    0.125701   -3.230774    0.000000
siesta:     58   -0.776058   -0.417832    0.000000
siesta:     59   -0.105456    0.002637    0.000000
siesta:     60    2.852556    1.558347    0.000000
siesta:     61   -1.124356   -0.667219    0.000000
siesta:     62    0.317573    0.192014    0.000000
siesta:     63    2.768796    1.698810    0.000000
siesta:     64    0.400106   -0.144421    0.000000
siesta:     65   -0.004558    0.370140    0.000000
siesta:     66    0.084819    0.397528    0.000000
siesta:     67    0.315588   -0.183950    0.000000
siesta:     68    0.929938   -0.534137    0.000000
siesta:     69   -0.084644   -3.294036    0.000000
siesta:     70    0.181493    0.090235    0.000000
siesta:     71   -0.672329   -0.384451    0.000000
siesta:     72    3.197959    1.886342    0.000000
siesta: ----------------------------------------
siesta:    Tot    0.184887   -0.126748    0.000000

siesta: Stress tensor (static) (eV/Ang**3):
siesta:    -0.074557   -0.000631    0.000000
siesta:    -0.000631   -0.073619    0.000000
siesta:     0.000000    0.000000   -0.000157

siesta: Cell volume =       1893.226895 Ang**3

siesta: Pressure (static):
siesta:                Solid            Molecule  Units
siesta:           0.00053851          0.00085790  Ry/Bohr**3
siesta:           0.04944461          0.07876981  eV/Ang**3
siesta:          79.21985715        126.20451575  kBar
(Free)E+ p_basis*V_orbitals  =      -11111.382698
(Free)Eharris+ p_basis*V_orbitals  =      -11111.383265

siesta: Electric dipole (a.u.)  =    0.000000    0.000000    0.000000
siesta: Electric dipole (Debye) =    0.000000    0.000000    0.000000

* Maximum dynamic memory allocated : Node    0 =   222 MB
* Maximum dynamic memory allocated : Node    1 =    81 MB
* Maximum dynamic memory allocated : Node    2 =    84 MB
* Maximum dynamic memory allocated : Node    3 =   211 MB
* Maximum dynamic memory allocated : Node    4 =   223 MB
* Maximum dynamic memory allocated : Node    5 =    79 MB
* Maximum dynamic memory allocated : Node    6 =    82 MB
* Maximum dynamic memory allocated : Node    7 =   205 MB

* Maximum memory occured during matrixMtoO                    

timer: CPU execution times:
timer:  Routine       Calls   Time/call    Tot.time        %
timer:  siesta            1  154863.047  154863.047   100.00
timer:  Setup             1       3.054       3.054     0.00
timer:  bands             1       0.012       0.012     0.00
timer:  writewave         1       0.017       0.017     0.00
timer:  KSV_init          1       0.002       0.002     0.00
timer:  IterMD            1  154851.854  154851.854    99.99
timer:  hsparse           1       0.391       0.391     0.00
timer:  overlap           1       6.397       6.397     0.00
timer:  IterSCF          23    6724.224  154657.146    99.87
timer:  kinefsm           2       3.347       6.694     0.00
timer:  nlefsm            2      20.485      40.969     0.03
timer:  DHSCF            24     107.632    2583.165     1.67
timer:  DHSCF1            1       0.993       0.993     0.00
timer:  DHSCF2            1      42.072      42.072     0.03
timer:  REORD           194       0.010       1.956     0.00
timer:  POISON           25       2.250      56.248     0.04
timer:  DHSCF3           24     104.223    2501.342     1.62
timer:  rhoofd           24      19.894     477.452     0.31
timer:  cellXC           24       3.479      83.496     0.05
timer:  vmat             24      55.172    1324.139     0.86
timer:  MolMec            2       0.000       0.000     0.00
timer:  diagon           23    6615.077  152146.774    98.25
timer:  c-eigval       8096       6.699   54237.168    35.02
timer:  c-buildHS      8096       0.122     989.248     0.64
timer:  cdiag         16192       6.917  112002.179    72.32
timer:  cdiag1        16192       0.430    6966.961     4.50
timer:  cdiag2        16192       1.907   30876.006    19.94
timer:  cdiag3        16192       3.964   64185.279    41.45
timer:  cdiag4        16192       0.230    3730.065     2.41
timer:  c-eigvec       8096       7.332   59356.170    38.33
timer:  c-buildD       8096       4.754   38485.867    24.85
timer:  DHSCF4            1      37.494      37.494     0.02
timer:  dfscf             1      34.928      34.928     0.02
timer:  overfsm           1       0.430       0.430     0.00
timer:  optical           1       7.119       7.119     0.00
  

elaps: ELAPSED times:
elaps:  Routine       Calls   Time/call    Tot.time        %
elaps:  siesta            1   19380.350   19380.350   100.00
elaps:  Setup             1       0.380       0.380     0.00
elaps:  bands             1       0.001       0.001     0.00
elaps:  writewave         1       0.002       0.002     0.00
elaps:  KSV_init          1       0.000       0.000     0.00
elaps:  IterMD            1   19378.951   19378.951    99.99
elaps:  hsparse           1       0.049       0.049     0.00
elaps:  overlap           1       0.979       0.979     0.01
elaps:  IterSCF          23     841.504   19354.594    99.87
elaps:  kinefsm           2       0.503       1.006     0.01
elaps:  nlefsm            2       2.625       5.249     0.03
elaps:  DHSCF            24      13.613     326.703     1.69
elaps:  DHSCF1            1       0.128       0.128     0.00
elaps:  DHSCF2            1       5.258       5.258     0.03
elaps:  REORD           194       0.001       0.248     0.00
elaps:  POISON           25       0.282       7.062     0.04
elaps:  DHSCF3           24      13.039     312.936     1.61
elaps:  rhoofd           24       4.228     101.481     0.52
elaps:  cellXC           24       0.435      10.431     0.05
elaps:  vmat             24       6.902     165.651     0.85
elaps:  MolMec            2       0.000       0.000     0.00
elaps:  diagon           23     827.876   19041.149    98.25
elaps:  c-eigval       8096       0.838    6785.890    35.01
elaps:  c-buildHS      8096       0.017     136.091     0.70
elaps:  cdiag         16192       0.850   13767.528    71.04
elaps:  cdiag1        16192       0.053     863.781     4.46
elaps:  cdiag2        16192       0.239    3863.268    19.93
elaps:  cdiag3        16192       0.497    8041.636    41.49
elaps:  cdiag4        16192       0.029     467.644     2.41
elaps:  c-eigvec       8096       0.890    7209.459    37.20
elaps:  c-buildD       8096       0.622    5036.310    25.99
elaps:  DHSCF4            1       8.209       8.209     0.04
elaps:  dfscf             1       7.714       7.714     0.04
elaps:  overfsm           1       0.054       0.054     0.00
elaps:  optical           1       0.000       0.000     0.00
  
>> End of run:  27-NOV-2015  11:22:08
