Siesta Version:                                        siesta-3.2-pl-3
Architecture  : x86_64-unknown-linux-gnu--unknown
Compiler flags: mpiifort -g -O2 -fPIC -xSSE4.1 -fp-model source -shared-intel 
PARALLEL version

* Running on    8 nodes in parallel
>> Start of run:  27-NOV-2015   6:43:19

                           ***********************       
                           *  WELCOME TO SIESTA  *       
                           ***********************       

reinit: Reading from standard input
************************** Dump of input data file ****************************
#(1) General system descriptors
SystemName            GRP_doping    # Descriptive name of the system
SystemLabel           GRP_doping    # Short name for naming files
%include STRUCT.fdf
%include KPT.fdf
%include BASIS.fdf
#%include TS.fdf # for transiesta calculation
#(4) DFT, Grid, SCF
XC.functional         GGA           # LDA or GGA (default = LDA)
XC.authors            PBE           # CA (Ceperley-Aldr) = PZ
                                    #    (Perdew-Zunger) - LDA - Default
                                    # PW92 (Perdew-Wang-92) - LDA
                                    # PBE (Perdew-Burke-Ernzerhof) - GGA
MeshCutoff            200.000000    Ry      # Default: 50.0 Ry ~ 0.444 Bohr
                                    #         100.0 Ry ~ 0.314 Bohr
MaxSCFIterations      500           # Default: 50
DM.MixingWeight       0.05          # Default: 0.25
DM.NumberPulay        10            # Default: 0
DM.PulayOnFile        F             # SystemLabel.P1, SystemLabel.P2
DM.Tolerance          1.d-4         # Default: 1.d-4
DM.UseSaveDM          .true.        # because of the bug
SCFMustConverge       .true.
NeglNonOverlapInt     F             # Default: F
#(5) Eigenvalue problem: order-N or diagonalization
SolutionMethod        Diagon        # or Transiesta
ElectronicTemperature 300.0 K       # Default: 300.0 K
#(6) Molecular dynamics and relaxations
#MD.TypeOfRun          CG            # Type of dynamics:
#MD.VariableCell       F
#MD.NumCGsteps         0           # 0 for single-point / 100 for gopt
#MD.MaxCGDispl         0.2 Bohr      # Default: 0.2 Bohr
#MD.MaxForceTol        0.02 eV/Ang   # Default: 0.04 eV/Ang
#MD.MaxStressTol       1.0 GPa       # Default: 1.0 GPa
# Geometry Constraints
#%block GeometryConstraints
#	position from 1 to 44
#%endblock GeometryConstraints
************************** End of input data file *****************************

reinit: -----------------------------------------------------------------------
reinit: System Name: GRP_doping
reinit: -----------------------------------------------------------------------
reinit: System Label: GRP_doping                                                  
reinit: -----------------------------------------------------------------------

initatom: Reading input for the pseudopotentials and atomic orbitals ----------
 Species number:            1  Label: B Atomic number:           5
 Species number:            2  Label: C Atomic number:           6
Ground state valence configuration:   2s02  2p01
Reading pseudopotential information in formatted form from B.psf

Valence configuration for pseudopotential generation:
2s( 2.00) rc: 1.74
2p( 1.00) rc: 1.74
3d( 0.00) rc: 1.74
4f( 0.00) rc: 1.74
Ground state valence configuration:   2s02  2p02
Reading pseudopotential information in formatted form from C.psf

Valence configuration for pseudopotential generation:
2s( 2.00) rc: 1.54
2p( 2.00) rc: 1.54
3d( 0.00) rc: 1.54
4f( 0.00) rc: 1.54
For B, standard SIESTA heuristics set lmxkb to 3
 (one more than the basis l, including polarization orbitals).
Use PS.lmax or PS.KBprojectors blocks to override.
For C, standard SIESTA heuristics set lmxkb to 3
 (one more than the basis l, including polarization orbitals).
Use PS.lmax or PS.KBprojectors blocks to override.

<basis_specs>
===============================================================================
B                    Z=   5    Mass=  10.810        Charge= 0.17977+309
Lmxo=1 Lmxkb= 3    BasisType=split      Semic=F
L=0  Nsemic=0  Cnfigmx=2
          n=1  nzeta=2  polorb=0
            splnorm:   0.15000    
               vcte:    0.0000    
               rinn:    0.0000    
                rcs:    0.0000      0.0000    
            lambdas:    1.0000      1.0000    
L=1  Nsemic=0  Cnfigmx=2
          n=1  nzeta=2  polorb=1
            splnorm:   0.15000    
               vcte:    0.0000    
               rinn:    0.0000    
                rcs:    0.0000      0.0000    
            lambdas:    1.0000      1.0000    
-------------------------------------------------------------------------------
L=0  Nkbl=1  erefs: 0.17977+309
L=1  Nkbl=1  erefs: 0.17977+309
L=2  Nkbl=1  erefs: 0.17977+309
L=3  Nkbl=1  erefs: 0.17977+309
===============================================================================
</basis_specs>

atom: Called for B                     (Z =   5)

read_vps: Pseudopotential generation method:
read_vps: ATM3      Troullier-Martins                       
Total valence charge:    3.00000

read_vps: Pseudopotential includes a core correction:
read_vps: Pseudo-core for xc-correction

xc_check: Exchange-correlation functional:
xc_check: GGA Perdew, Burke & Ernzerhof 1996
V l=0 = -2*Zval/r beyond r=  1.7165
V l=1 = -2*Zval/r beyond r=  1.7165
V l=2 = -2*Zval/r beyond r=  1.7165
V l=3 = -2*Zval/r beyond r=  1.6951
All V_l potentials equal beyond r=  1.7165
This should be close to max(r_c) in ps generation
All pots = -2*Zval/r beyond r=  1.7165

VLOCAL1: 99.0% of the norm of Vloc inside     14.733 Ry
VLOCAL1: 99.9% of the norm of Vloc inside     33.577 Ry
atom: Maximum radius for 4*pi*r*r*local-pseudopot. charge    2.04484
atom: Maximum radius for r*vlocal+2*Zval:    1.75994
GHOST: No ghost state for L =  0
GHOST: No ghost state for L =  1
GHOST: No ghost state for L =  2
GHOST: No ghost state for L =  3

KBgen: Kleinman-Bylander projectors: 
   l= 0   rc=  1.897051   el= -0.693730   Ekb=  4.595746   kbcos=  0.286105
   l= 1   rc=  1.920920   el= -0.265236   Ekb= -2.350715   kbcos= -0.315747
   l= 2   rc=  2.044840   el=  0.002055   Ekb= -0.690767   kbcos= -0.013822
   l= 3   rc=  2.149707   el=  0.003188   Ekb= -0.315358   kbcos= -0.002055

KBgen: Total number of  Kleinman-Bylander projectors:   16
atom: -------------------------------------------------------------------------

atom: SANKEY-TYPE ORBITALS:
atom: Selected multiple-zeta basis: split     

SPLIT: Orbitals with angular momentum L= 0

SPLIT: Basis orbitals for state 2s

SPLIT: PAO cut-off radius determined from an
SPLIT: energy shift=  0.007350 Ry

   izeta = 1
                 lambda =    1.000000
                     rc =    5.422032
                 energy =   -0.686029
                kinetic =    0.576707
    potential(screened) =   -1.262736
       potential(ionic) =   -3.271094

   izeta = 2
                 rmatch =    4.222573
              splitnorm =    0.150000
                 energy =   -0.602132
                kinetic =    0.858975
    potential(screened) =   -1.461107
       potential(ionic) =   -3.582536

SPLIT: Orbitals with angular momentum L= 1

SPLIT: Basis orbitals for state 2p

SPLIT: PAO cut-off radius determined from an
SPLIT: energy shift=  0.007350 Ry

   izeta = 1
                 lambda =    1.000000
                     rc =    6.790259
                 energy =   -0.258578
                kinetic =    1.481412
    potential(screened) =   -1.739989
       potential(ionic) =   -3.657461

   izeta = 2
                 rmatch =    4.608740
              splitnorm =    0.150000
                 energy =   -0.173757
                kinetic =    2.186690
    potential(screened) =   -2.360447
       potential(ionic) =   -4.464260

POLgen: Perturbative polarization orbital with L=  2

POLgen: Polarization orbital for state 2p

   izeta = 1
                     rc =    6.790259
                 energy =    0.684082
                kinetic =    1.471481
    potential(screened) =   -0.787399
       potential(ionic) =   -2.406985
atom: Total number of Sankey-type orbitals: 13

atm_pop: Valence configuration (for local Pseudopot. screening):
 2s( 2.00)                                                            
 2p( 1.00)                                                            
Vna: chval, zval:    3.00000   3.00000

Vna:  Cut-off radius for the neutral-atom potential:   6.790259
comcore: Pseudo-core radius Rcore=  2.122997

atom: _________________________________________________________________________

<basis_specs>
===============================================================================
C                    Z=   6    Mass=  12.010        Charge= 0.17977+309
Lmxo=1 Lmxkb= 3    BasisType=split      Semic=F
L=0  Nsemic=0  Cnfigmx=2
          n=1  nzeta=2  polorb=0
            splnorm:   0.15000    
               vcte:    0.0000    
               rinn:    0.0000    
                rcs:    0.0000      0.0000    
            lambdas:    1.0000      1.0000    
L=1  Nsemic=0  Cnfigmx=2
          n=1  nzeta=2  polorb=1
            splnorm:   0.15000    
               vcte:    0.0000    
               rinn:    0.0000    
                rcs:    0.0000      0.0000    
            lambdas:    1.0000      1.0000    
-------------------------------------------------------------------------------
L=0  Nkbl=1  erefs: 0.17977+309
L=1  Nkbl=1  erefs: 0.17977+309
L=2  Nkbl=1  erefs: 0.17977+309
L=3  Nkbl=1  erefs: 0.17977+309
===============================================================================
</basis_specs>

atom: Called for C                     (Z =   6)

read_vps: Pseudopotential generation method:
read_vps: ATM3      Troullier-Martins                       
Total valence charge:    4.00000

read_vps: Pseudopotential includes a core correction:
read_vps: Pseudo-core for xc-correction

xc_check: Exchange-correlation functional:
xc_check: GGA Perdew, Burke & Ernzerhof 1996
V l=0 = -2*Zval/r beyond r=  1.5227
V l=1 = -2*Zval/r beyond r=  1.5227
V l=2 = -2*Zval/r beyond r=  1.5227
V l=3 = -2*Zval/r beyond r=  1.5038
All V_l potentials equal beyond r=  1.5227
This should be close to max(r_c) in ps generation
All pots = -2*Zval/r beyond r=  1.5227

VLOCAL1: 99.0% of the norm of Vloc inside     18.722 Ry
VLOCAL1: 99.9% of the norm of Vloc inside     42.668 Ry
atom: Maximum radius for 4*pi*r*r*local-pseudopot. charge    1.83678
atom: Maximum radius for r*vlocal+2*Zval:    1.58088
GHOST: No ghost state for L =  0
GHOST: No ghost state for L =  1
GHOST: No ghost state for L =  2
GHOST: No ghost state for L =  3

KBgen: Kleinman-Bylander projectors: 
   l= 0   rc=  1.704034   el= -1.009801   Ekb=  5.335044   kbcos=  0.316824
   l= 1   rc=  1.704034   el= -0.388707   Ekb= -3.785862   kbcos= -0.366464
   l= 2   rc=  1.791422   el=  0.001971   Ekb= -0.970471   kbcos= -0.009212
   l= 3   rc=  1.859892   el=  0.003065   Ekb= -0.399525   kbcos= -0.001223

KBgen: Total number of  Kleinman-Bylander projectors:   16
atom: -------------------------------------------------------------------------

atom: SANKEY-TYPE ORBITALS:
atom: Selected multiple-zeta basis: split     

SPLIT: Orbitals with angular momentum L= 0

SPLIT: Basis orbitals for state 2s

SPLIT: PAO cut-off radius determined from an
SPLIT: energy shift=  0.007350 Ry

   izeta = 1
                 lambda =    1.000000
                     rc =    4.632753
                 energy =   -1.002270
                kinetic =    0.855760
    potential(screened) =   -1.858031
       potential(ionic) =   -5.417575

   izeta = 2
                 rmatch =    3.431921
              splitnorm =    0.150000
                 energy =   -0.867111
                kinetic =    1.300804
    potential(screened) =   -2.167915
       potential(ionic) =   -5.962684

SPLIT: Orbitals with angular momentum L= 1

SPLIT: Basis orbitals for state 2p

SPLIT: PAO cut-off radius determined from an
SPLIT: energy shift=  0.007350 Ry

   izeta = 1
                 lambda =    1.000000
                     rc =    5.658549
                 energy =   -0.381140
                kinetic =    2.399701
    potential(screened) =   -2.780841
       potential(ionic) =   -6.206085

   izeta = 2
                 rmatch =    3.653288
              splitnorm =    0.150000
                 energy =   -0.249149
                kinetic =    3.542762
    potential(screened) =   -3.791911
       potential(ionic) =   -7.581078

POLgen: Perturbative polarization orbital with L=  2

POLgen: Polarization orbital for state 2p

   izeta = 1
                     rc =    5.658549
                 energy =    1.109913
                kinetic =    2.304789
    potential(screened) =   -1.194876
       potential(ionic) =   -4.013592
atom: Total number of Sankey-type orbitals: 13

atm_pop: Valence configuration (for local Pseudopot. screening):
 2s( 2.00)                                                            
 2p( 2.00)                                                            
Vna: chval, zval:    4.00000   4.00000

Vna:  Cut-off radius for the neutral-atom potential:   5.658549
comcore: Pseudo-core radius Rcore=  1.791422

atom: _________________________________________________________________________

prinput: Basis input ----------------------------------------------------------

PAO.BasisType split     

%block ChemicalSpeciesLabel
    1    5 B                       # Species index, atomic number, species label
    2    6 C                       # Species index, atomic number, species label
%endblock ChemicalSpeciesLabel

%block PAO.Basis                 # Define Basis set
B                     2                    # Species label, number of l-shells
 n=2   0   2                         # n, l, Nzeta 
   5.422      4.223   
   1.000      1.000   
 n=2   1   2 P   1                   # n, l, Nzeta, Polarization, NzetaPol
   6.790      4.609   
   1.000      1.000   
C                     2                    # Species label, number of l-shells
 n=2   0   2                         # n, l, Nzeta 
   4.633      3.432   
   1.000      1.000   
 n=2   1   2 P   1                   # n, l, Nzeta, Polarization, NzetaPol
   5.659      3.653   
   1.000      1.000   
%endblock PAO.Basis

prinput: ----------------------------------------------------------------------

coor:   Atomic-coordinates input format  =     Cartesian coordinates
coor:                                          (in Angstroms)

siesta: Atomic coordinates (Bohr) and species
siesta:      2.23554   1.32097   0.00000  1        1
siesta:     37.15930  18.79590   0.00000  1        2
siesta:     11.54782   1.32097   0.00000  1        3
siesta:     20.86199   1.32097   0.00000  1        4
siesta:      6.89205   9.38661   0.00000  1        5
siesta:     16.20434   9.38661   0.00000  1        6
siesta:     11.54857  17.45226   0.00000  1        7
siesta:     25.51851   9.38661   0.00000  1        8
siesta:     20.86274  17.45226   0.00000  1        9
siesta:      4.56367   2.66461   0.00000  2       10
siesta:     32.50328  21.48508   0.00000  2       11
siesta:     34.83141  22.82873   0.00000  2       12
siesta:     34.83116  17.45226   0.00000  2       13
siesta:     32.50291  13.41944   0.00000  2       14
siesta:     34.83104  14.76308   0.00000  2       15
siesta:     30.17465   9.38661   0.00000  2       16
siesta:     32.50278  10.73026   0.00000  2       17
siesta:     27.84639   5.35379   0.00000  2       18
siesta:     30.17453   6.69743   0.00000  2       19
siesta:     27.84714  21.48508   0.00000  2       20
siesta:     30.17527  22.82873   0.00000  2       21
siesta:      6.89168   1.32097   0.00000  2       22
siesta:      9.21981   2.66461   0.00000  2       23
siesta:     13.87595   2.66461   0.00000  2       24
siesta:     16.20396   1.32097   0.00000  2       25
siesta:     18.53210   2.66461   0.00000  2       26
siesta:     23.19013   2.66461   0.00000  2       27
siesta:     25.51813   1.32097   0.00000  2       28
siesta:     27.84627   2.66461   0.00000  2       29
siesta:      4.56380   5.35379   0.00000  2       30
siesta:      6.89193   6.69743   0.00000  2       31
siesta:      9.21994   5.35379   0.00000  2       32
siesta:     11.54807   6.69743   0.00000  2       33
siesta:     13.87608   5.35379   0.00000  2       34
siesta:     16.20421   6.69743   0.00000  2       35
siesta:     18.53411   5.35379   0.00000  2       36
siesta:     20.86224   6.69743   0.00000  2       37
siesta:     23.19025   5.35379   0.00000  2       38
siesta:     25.51838   6.69743   0.00000  2       39
siesta:      9.22019  10.73026   0.00000  2       40
siesta:     11.54820   9.38661   0.00000  2       41
siesta:     13.87633  10.73026   0.00000  2       42
siesta:     18.53247  10.73026   0.00000  2       43
siesta:     20.86237   9.38661   0.00000  2       44
siesta:     23.19050  10.73026   0.00000  2       45
siesta:      9.22031  13.41944   0.00000  2       46
siesta:     11.54845  14.76308   0.00000  2       47
siesta:     13.87645  13.41944   0.00000  2       48
siesta:     16.20459  14.76308   0.00000  2       49
siesta:     18.53448  13.41944   0.00000  2       50
siesta:     20.86262  14.76308   0.00000  2       51
siesta:     13.87670  18.79590   0.00000  2       52
siesta:     16.20471  17.45226   0.00000  2       53
siesta:     18.53284  18.79590   0.00000  2       54
siesta:     13.87683  21.48508   0.00000  2       55
siesta:     16.20496  22.82873   0.00000  2       56
siesta:     18.53486  21.48508   0.00000  2       57
siesta:     20.86299  22.82873   0.00000  2       58
siesta:     27.84664  10.73026   0.00000  2       59
siesta:     23.19063  13.41944   0.00000  2       60
siesta:     25.51876  14.76308   0.00000  2       61
siesta:     23.19088  18.79590   0.00000  2       62
siesta:     27.84677  13.41944   0.00000  2       63
siesta:     30.17490  14.76308   0.00000  2       64
siesta:     25.51888  17.45226   0.00000  2       65
siesta:     27.84702  18.79590   0.00000  2       66
siesta:     23.19100  21.48508   0.00000  2       67
siesta:     25.51913  22.82873   0.00000  2       68
siesta:     30.17503  17.45226   0.00000  2       69
siesta:     32.50316  18.79590   0.00000  2       70
siesta:     37.16131  21.48508   0.00000  2       71
siesta:     39.48945  22.82873   0.00000  2       72

siesta: System type = slab      

initatomlists: Number of atoms, orbitals, and projectors:     72   936  1152

siesta: ******************** Simulation parameters ****************************
siesta:
siesta: The following are some of the parameters of the simulation.
siesta: A complete list of the parameters used, including default values,
siesta: can be found in file out.fdf
siesta:
redata: Non-Collinear-spin run           =     F
redata: SpinPolarized (Up/Down) run      =     F
redata: Number of spin components        =     1
redata: Long output                      =     F
redata: Number of Atomic Species         =        2
redata: Charge density info will appear in .RHO file
redata: Write Mulliken Pop.              =     NO
redata: Mesh Cutoff                      =   200.0000  Ry
redata: Net charge of the system         =     0.0000 |e|
redata: Max. number of SCF Iter          =      500
redata: SCF convergence failure will abort job
redata: Performing Pulay mixing using    =    10 iterations
redata: Mix DM in first SCF step ?       =     F
redata: Write Pulay info on disk?        =     F
redata: Discard 1st Pulay DM after  kick =     F
redata: New DM Mixing Weight             =     0.0500
redata: New DM Occupancy tolerance       = 0.000000000001
redata: No kicks to SCF
redata: DM Mixing Weight for Kicks       =     0.5000
redata: DM Tolerance for SCF             =     0.000100
redata: Require Energy convergence for SCF =     F
redata: DM Energy tolerance for SCF      =     0.000100 eV
redata: Require Harris convergence for SCF =     F
redata: DM Harris energy tolerance for SCF =     0.000100 eV
redata: Using Saved Data (generic)   =     F
redata: Use continuation files for DM    =     T
redata: Neglect nonoverlap interactions  =     F
redata: Method of Calculation            =     Diagonalization
redata: Divide and Conquer               =     T
redata: Electronic Temperature           =     0.0019  Ry
redata: Fix the spin of the system       =     F
redata: Dynamics option                  =     Verlet MD run
redata: Initial MD time step             =        1
redata:   Final MD time step             =        1
redata: Length of MD time step           =     1.0000  fs
redata: Initial Temperature of MD run    =     0.0000  K
redata: Perform a MD quench              =     F
redata: ***********************************************************************
Total number of electrons:   279.000000
Total ionic charge:   279.000000

* ProcessorY, Blocksize:    2  24

k-point displ. along   1 input, could be:     0.00    0.50
k-point displ. along   2 input, could be:     0.00    0.50
 Kpoints in:          364 . Kpoints trimmed:          352

siesta: k-grid: Number of k-points =   352
siesta: k-grid: Cutoff (effective) =     5.000 Ang
siesta: k-grid: Supercell and displacements
siesta: k-grid:   26   0   0      0.000
siesta: k-grid:    0  26   0      0.000
siesta: k-grid:    0   0   1      0.000
Naive supercell factors:     2    2    2

superc: Internal auxiliary supercell:     2 x     2 x     2  =       8
superc: Number of atoms, orbitals, and projectors:    576   7488   9216

* Maximum dynamic memory allocated =     6 MB

siesta:                 ==============================
                            Begin MD step =      1
                        ==============================

superc: Internal auxiliary supercell:     2 x     2 x     2  =       8
superc: Number of atoms, orbitals, and projectors:    576   7488   9216

outcell: Unit cell vectors (Ang):
       14.785000    0.000000    0.000000
        7.393000   12.805052    0.000000
        0.000000    0.000000   10.000000

outcell: Cell vector modules (Ang)   :   14.785000   14.786000   10.000000
outcell: Cell angles (23,13,12) (deg):     90.0000     90.0000     60.0000
outcell: Cell volume (Ang**3)        :   1893.2269
New_DM. Step:     1
Initializing Density Matrix...

InitMesh: MESH =   120 x   120 x    90 =     1296000
InitMesh: Mesh cutoff (required, used) =   200.000   223.865 Ry

* Maximum dynamic memory allocated =   208 MB

stepf: Fermi-Dirac step function

siesta: Program's energy decomposition (eV):
siesta: Ebs     =     -4460.398893
siesta: Eions   =     17250.500670
siesta: Ena     =      3769.797886
siesta: Ekin    =      5903.534022
siesta: Enl     =       294.311112
siesta: DEna    =        -0.000010
siesta: DUscf   =         0.000000
siesta: DUext   =         0.000000
siesta: Exc     =     -3961.819212
siesta: eta*DQ  =         0.000000
siesta: Emadel  =         0.000000
siesta: Emeta   =         0.000000
siesta: Emolmec =         0.000000
siesta: Ekinion =         0.000000
siesta: Eharris =    -11172.412502
siesta: Etot    =    -11244.676873
siesta: FreeEng =    -11244.676873

siesta: iscf   Eharris(eV)      E_KS(eV)   FreeEng(eV)   dDmax  Ef(eV)
siesta:    1   -11172.4125   -11244.6769   -11244.6769  1.8846 -8.1072
timer: Routine,Calls,Time,% = IterSCF        1    8272.587  99.86
elaps: Routine,Calls,Wall,% = IterSCF        1    1035.782  99.85
siesta:    2   -11191.9098   -11125.1176   -11125.1528  0.5320 -3.8152
siesta:    3   -11152.7458   -11161.8937   -11161.9305  0.4767 -5.3540
siesta:    4   -11150.0501   -11161.1569   -11161.1736  0.4570 -5.4208
siesta:    5   -11146.3430   -11154.9928   -11155.0186  0.3187 -5.7201
siesta:    6   -11146.0875   -11148.0831   -11148.1150  0.2028 -5.6896
siesta:    7   -11146.8583   -11142.5934   -11142.6312  0.1246 -5.8791
siesta:    8   -11145.4527   -11141.8006   -11141.8339  0.1040 -5.8898
siesta:    9   -11144.7014   -11141.6768   -11141.7062  0.0887 -5.9189
siesta:   10   -11144.2447   -11141.6499   -11141.6825  0.0636 -5.9636
siesta:   11   -11144.1111   -11142.0185   -11142.0532  0.0512 -5.9787
siesta:   12   -11144.0828   -11142.1807   -11142.2121  0.0435 -5.9785
siesta:   13   -11144.0644   -11142.8621   -11142.8938  0.0275 -5.9591
siesta:   14   -11144.0608   -11143.4173   -11143.4511  0.0183 -5.9545
siesta:   15   -11144.0495   -11143.8708   -11143.9053  0.0081 -5.9464
siesta:   16   -11144.0449   -11144.0023   -11144.0361  0.0067 -5.9459
siesta:   17   -11144.0432   -11144.0396   -11144.0729  0.0038 -5.9467
siesta:   18   -11144.0420   -11144.0158   -11144.0492  0.0027 -5.9447
siesta:   19   -11144.0415   -11143.9843   -11144.0174  0.0019 -5.9456
siesta:   20   -11144.0410   -11144.0269   -11144.0601  0.0014 -5.9468
siesta:   21   -11144.0410   -11144.0432   -11144.0764  0.0006 -5.9465
siesta:   22   -11144.0410   -11144.0497   -11144.0828  0.0005 -5.9464
siesta:   23   -11144.0409   -11144.0521   -11144.0853  0.0004 -5.9469
siesta:   24   -11144.0409   -11144.0533   -11144.0865  0.0002 -5.9471
siesta:   25   -11144.0409   -11144.0529   -11144.0861  0.0002 -5.9471
siesta:   26   -11144.0409   -11144.0524   -11144.0856  0.0001 -5.9471

siesta: E_KS(eV) =           -11144.0497

siesta: E_KS - E_eggbox =    -11144.0497

siesta: Atomic forces (eV/Ang):
----------------------------------------
   Tot    0.188150   -0.131989    0.000000
----------------------------------------
   Max    3.609805
   Res    1.233243    sqrt( Sum f_i^2 / 3N )
----------------------------------------
   Max    3.609805    constrained

Stress-tensor-Voigt (kbar):     -120.02     -117.66       -0.25        0.57        0.00        0.00
(Free)E + p*V (eV/cell)   -11050.3667
Target enthalpy (eV/cell)   -11144.0829

siesta: Stress tensor (static) (eV/Ang**3):
        -0.074907    0.000357    0.000000
         0.000357   -0.073439    0.000000
         0.000000    0.000000   -0.000157

siesta: Pressure (static):         79.30988830  kBar

siesta: Stress tensor (total) (eV/Ang**3):
        -0.074907    0.000357    0.000000
         0.000357   -0.073439    0.000000
         0.000000    0.000000   -0.000157

siesta: Pressure (total):         79.30988830  kBar

siesta: Temp_ion =       0.000 K

* Maximum dynamic memory allocated =   223 MB

siesta: Program's energy decomposition (eV):
siesta: Ebs     =     -3690.969420
siesta: Eions   =     17250.500670
siesta: Ena     =      3769.797886
siesta: Ekin    =      7406.563359
siesta: Enl     =      -691.373227
siesta: DEna    =      -341.563773
siesta: DUscf   =        36.578764
siesta: DUext   =         0.000000
siesta: Exc     =     -4073.552076
siesta: eta*DQ  =         0.000000
siesta: Emadel  =         0.000000
siesta: Emeta   =         0.000000
siesta: Emolmec =         0.000000
siesta: Ekinion =         0.000000
siesta: Eharris =    -11144.040919
siesta: Etot    =    -11144.049737
siesta: FreeEng =    -11144.082945

siesta: Final energy (eV):
siesta:  Band Struct. =   -3690.969420
siesta:       Kinetic =    7406.563359
siesta:       Hartree =   21696.037622
siesta:    Ext. field =       0.000000
siesta:   Exch.-corr. =   -4073.552076
siesta:  Ion-electron =  -50130.556940
siesta:       Ion-ion =   13957.458298
siesta:       Ekinion =       0.000000
siesta:         Total =  -11144.049737

siesta: Atomic forces (eV/Ang):
siesta:      1    0.107124   -0.098228    0.000000
siesta:      2   -3.364600    2.064023    0.000000
siesta:      3    0.075754   -0.071674    0.000000
siesta:      4   -0.239216   -0.045255    0.000000
siesta:      5    0.089402    0.074886    0.000000
siesta:      6   -0.027572   -0.039324    0.000000
siesta:      7    3.609805   -2.141118    0.000000
siesta:      8    0.066142    0.046460    0.000000
siesta:      9    0.086548    0.042235    0.000000
siesta:     10    2.720278    1.562958    0.000000
siesta:     11   -0.092545   -0.089876    0.000000
siesta:     12    0.575150   -2.861698    0.000000
siesta:     13   -3.497583   -1.874105    0.000000
siesta:     14   -0.434926   -0.408909    0.000000
siesta:     15   -1.067699    1.032397    0.000000
siesta:     16   -0.012367    1.042578    0.000000
siesta:     17   -3.001606    1.690208    0.000000
siesta:     18   -0.859190   -0.502294    0.000000
siesta:     19   -0.015098   -0.050229    0.000000
siesta:     20   -0.336377   -0.288989    0.000000
siesta:     21    0.254812   -0.583765    0.000000
siesta:     22   -0.034569    1.017526    0.000000
siesta:     23   -2.750832    1.534951    0.000000
siesta:     24    2.831680    1.444616    0.000000
siesta:     25    0.020711    1.446593    0.000000
siesta:     26   -2.755276    1.482649    0.000000
siesta:     27    2.776877    1.587630    0.000000
siesta:     28    0.163846    1.182131    0.000000
siesta:     29   -2.825037    1.650887    0.000000
siesta:     30    0.948133   -0.560684    0.000000
siesta:     31   -0.037890   -3.219261    0.000000
siesta:     32   -0.995916   -0.535749    0.000000
siesta:     33    0.061827    0.109372    0.000000
siesta:     34    1.050165   -0.404192    0.000000
siesta:     35   -0.033632   -3.130588    0.000000
siesta:     36   -0.979466   -0.433942    0.000000
siesta:     37   -0.102944    0.042453    0.000000
siesta:     38    0.936694   -0.642849    0.000000
siesta:     39    0.050205   -3.066912    0.000000
siesta:     40    2.639666    1.872002    0.000000
siesta:     41    0.178924    1.004513    0.000000
siesta:     42   -2.669016    1.547184    0.000000
siesta:     43    2.779970    1.539284    0.000000
siesta:     44   -0.174813    1.009466    0.000000
siesta:     45   -2.649760    1.698735    0.000000
siesta:     46    1.675603   -1.080086    0.000000
siesta:     47    0.285991   -3.270838    0.000000
siesta:     48   -0.970945   -0.831630    0.000000
siesta:     49    0.174157   -0.146757    0.000000
siesta:     50    0.663947   -0.560251    0.000000
siesta:     51    0.194430   -3.098086    0.000000
siesta:     52    3.022455    1.230188    0.000000
siesta:     53    0.099552    1.289456    0.000000
siesta:     54   -2.580189    1.495738    0.000000
siesta:     55    1.422647   -0.711554    0.000000
siesta:     56   -0.071699   -3.105700    0.000000
siesta:     57   -0.820399   -0.470695    0.000000
siesta:     58   -0.153972    0.007683    0.000000
siesta:     59    2.833697    1.535137    0.000000
siesta:     60   -1.171156   -0.648910    0.000000
siesta:     61    0.357754    0.243979    0.000000
siesta:     62    2.712768    1.698897    0.000000
siesta:     63    0.371805   -0.091653    0.000000
siesta:     64   -0.000799    0.493080    0.000000
siesta:     65    0.108763    0.353833    0.000000
siesta:     66    0.314025   -0.277970    0.000000
siesta:     67    0.955320   -0.598181    0.000000
siesta:     68   -0.082983   -3.278440    0.000000
siesta:     69   -0.120511    0.075927    0.000000
siesta:     70   -0.411264   -0.846527    0.000000
siesta:     71   -0.728622    3.434827    0.000000
siesta:     72   -0.958006    0.350451    0.000000
siesta: ----------------------------------------
siesta:    Tot    0.188150   -0.131989    0.000000

siesta: Stress tensor (static) (eV/Ang**3):
siesta:    -0.074907    0.000357    0.000000
siesta:     0.000357   -0.073439    0.000000
siesta:     0.000000    0.000000   -0.000157

siesta: Cell volume =       1893.226895 Ang**3

siesta: Pressure (static):
siesta:                Solid            Molecule  Units
siesta:           0.00053913          0.00101464  Ry/Bohr**3
siesta:           0.04950080          0.09316118  eV/Ang**3
siesta:          79.30988830        149.26227771  kBar
(Free)E+ p_basis*V_orbitals  =      -11110.501746
(Free)Eharris+ p_basis*V_orbitals  =      -11110.490245

siesta: Electric dipole (a.u.)  =    0.000000    0.000000    0.000000
siesta: Electric dipole (Debye) =    0.000000    0.000000    0.000000

* Maximum dynamic memory allocated : Node    0 =   222 MB
* Maximum dynamic memory allocated : Node    1 =    81 MB
* Maximum dynamic memory allocated : Node    2 =    84 MB
* Maximum dynamic memory allocated : Node    3 =   211 MB
* Maximum dynamic memory allocated : Node    4 =   223 MB
* Maximum dynamic memory allocated : Node    5 =    80 MB
* Maximum dynamic memory allocated : Node    6 =    83 MB
* Maximum dynamic memory allocated : Node    7 =   205 MB

* Maximum memory occured during matrixMtoO                    

timer: CPU execution times:
timer:  Routine       Calls   Time/call    Tot.time        %
timer:  siesta            1  213078.904  213078.904   100.00
timer:  Setup             1       3.121       3.121     0.00
timer:  bands             1       0.008       0.008     0.00
timer:  writewave         1       0.016       0.016     0.00
timer:  KSV_init          1       0.005       0.005     0.00
timer:  IterMD            1  213067.637  213067.637    99.99
timer:  hsparse           1       0.402       0.402     0.00
timer:  overlap           1       6.399       6.399     0.00
timer:  IterSCF          26    8187.334  212870.673    99.90
timer:  kinefsm           2       3.316       6.633     0.00
timer:  nlefsm            2      20.526      41.053     0.02
timer:  DHSCF            27     109.700    2961.910     1.39
timer:  DHSCF1            1       1.044       1.044     0.00
timer:  DHSCF2            1      43.651      43.651     0.02
timer:  REORD           218       0.014       2.976     0.00
timer:  POISON           28       3.712     103.938     0.05
timer:  DHSCF3           27     106.566    2877.287     1.35
timer:  rhoofd           27      20.041     541.098     0.25
timer:  cellXC           27       3.529      95.277     0.04
timer:  vmat             27      55.568    1500.330     0.70
timer:  MolMec            2       0.000       0.001     0.00
timer:  diagon           26    8076.053  209977.388    98.54
timer:  c-eigval       9152       7.228   66151.602    31.05
timer:  c-buildHS      9152       0.215    1969.511     0.92
timer:  cdiag         18304       7.446  136289.170    63.96
timer:  cdiag1        18304       0.463    8467.814     3.97
timer:  cdiag2        18304       1.982   36273.276    17.02
timer:  cdiag3        18304       4.164   76220.466    35.77
timer:  cdiag4        18304       0.276    5049.627     2.37
timer:  c-eigvec       9152       7.961   72858.355    34.19
timer:  c-buildD       9152       7.743   70860.648    33.26
timer:  DHSCF4            1      37.490      37.490     0.02
timer:  dfscf             1      34.941      34.941     0.02
timer:  overfsm           1       0.428       0.428     0.00
timer:  optical           1       7.127       7.127     0.00
  

elaps: ELAPSED times:
elaps:  Routine       Calls   Time/call    Tot.time        %
elaps:  siesta            1   26677.710   26677.710   100.00
elaps:  Setup             1       0.387       0.387     0.00
elaps:  bands             1       0.001       0.001     0.00
elaps:  writewave         1       0.002       0.002     0.00
elaps:  KSV_init          1       0.000       0.000     0.00
elaps:  IterMD            1   26676.302   26676.302    99.99
elaps:  hsparse           1       0.049       0.049     0.00
elaps:  overlap           1       0.981       0.981     0.00
elaps:  IterSCF          26    1025.064   26651.658    99.90
elaps:  kinefsm           2       0.505       1.009     0.00
elaps:  nlefsm            2       2.587       5.174     0.02
elaps:  DHSCF            27      13.856     374.109     1.40
elaps:  DHSCF1            1       0.135       0.135     0.00
elaps:  DHSCF2            1       5.452       5.452     0.02
elaps:  REORD           218       0.002       0.371     0.00
elaps:  POISON           28       0.466      13.041     0.05
elaps:  DHSCF3           27      13.333     360.002     1.35
elaps:  rhoofd           27       4.246     114.643     0.43
elaps:  cellXC           27       0.440      11.892     0.04
elaps:  vmat             27       6.952     187.708     0.70
elaps:  MolMec            2       0.000       0.000     0.00
elaps:  diagon           26    1011.179   26290.653    98.55
elaps:  c-eigval       9152       0.904    8277.628    31.03
elaps:  c-buildHS      9152       0.028     260.180     0.98
elaps:  cdiag         18304       0.912   16685.329    62.54
elaps:  cdiag1        18304       0.059    1074.417     4.03
elaps:  cdiag2        18304       0.248    4538.525    17.01
elaps:  cdiag3        18304       0.522    9551.475    35.80
elaps:  cdiag4        18304       0.036     653.428     2.45
elaps:  c-eigvec       9152       0.959    8781.025    32.92
elaps:  c-buildD       9152       1.007    9217.534    34.55
elaps:  DHSCF4            1       8.190       8.190     0.03
elaps:  dfscf             1       7.694       7.694     0.03
elaps:  overfsm           1       0.056       0.056     0.00
elaps:  optical           1       0.000       0.000     0.00
  
>> End of run:  27-NOV-2015  14:07:57
