Siesta Version:                                        siesta-3.2-pl-3
Architecture  : x86_64-unknown-linux-gnu--unknown
Compiler flags: mpiifort -g -O2 -fPIC -xSSE4.1 -fp-model source -shared-intel 
PARALLEL version

* Running on    8 nodes in parallel
>> Start of run:  29-NOV-2015   9:26:53

                           ***********************       
                           *  WELCOME TO SIESTA  *       
                           ***********************       

reinit: Reading from standard input
************************** Dump of input data file ****************************
#(1) General system descriptors
SystemName            GRP_doping    # Descriptive name of the system
SystemLabel           GRP_doping    # Short name for naming files
%include STRUCT.fdf
%include KPT.fdf
%include BASIS.fdf
#%include TS.fdf # for transiesta calculation
#(4) DFT, Grid, SCF
XC.functional         GGA           # LDA or GGA (default = LDA)
XC.authors            PBE           # CA (Ceperley-Aldr) = PZ
                                    #    (Perdew-Zunger) - LDA - Default
                                    # PW92 (Perdew-Wang-92) - LDA
                                    # PBE (Perdew-Burke-Ernzerhof) - GGA
MeshCutoff            200.000000    Ry      # Default: 50.0 Ry ~ 0.444 Bohr
                                    #         100.0 Ry ~ 0.314 Bohr
MaxSCFIterations      500           # Default: 50
DM.MixingWeight       0.05          # Default: 0.25
DM.NumberPulay        10            # Default: 0
DM.PulayOnFile        F             # SystemLabel.P1, SystemLabel.P2
DM.Tolerance          1.d-4         # Default: 1.d-4
DM.UseSaveDM          .true.        # because of the bug
SCFMustConverge       .true.
NeglNonOverlapInt     F             # Default: F
#(5) Eigenvalue problem: order-N or diagonalization
SolutionMethod        Diagon        # or Transiesta
ElectronicTemperature 300.0 K       # Default: 300.0 K
#(6) Molecular dynamics and relaxations
#MD.TypeOfRun          CG            # Type of dynamics:
#MD.VariableCell       F
#MD.NumCGsteps         0           # 0 for single-point / 100 for gopt
#MD.MaxCGDispl         0.2 Bohr      # Default: 0.2 Bohr
#MD.MaxForceTol        0.02 eV/Ang   # Default: 0.04 eV/Ang
#MD.MaxStressTol       1.0 GPa       # Default: 1.0 GPa
# Geometry Constraints
#%block GeometryConstraints
#	position from 1 to 44
#%endblock GeometryConstraints
************************** End of input data file *****************************

reinit: -----------------------------------------------------------------------
reinit: System Name: GRP_doping
reinit: -----------------------------------------------------------------------
reinit: System Label: GRP_doping                                                  
reinit: -----------------------------------------------------------------------

initatom: Reading input for the pseudopotentials and atomic orbitals ----------
 Species number:            1  Label: C Atomic number:           6
 Species number:            2  Label: N Atomic number:           7
Ground state valence configuration:   2s02  2p02
Reading pseudopotential information in formatted form from C.psf

Valence configuration for pseudopotential generation:
2s( 2.00) rc: 1.54
2p( 2.00) rc: 1.54
3d( 0.00) rc: 1.54
4f( 0.00) rc: 1.54
Ground state valence configuration:   2s02  2p03
Reading pseudopotential information in formatted form from N.psf

Valence configuration for pseudopotential generation:
2s( 2.00) rc: 1.48
2p( 3.00) rc: 1.48
3d( 0.00) rc: 1.48
4f( 0.00) rc: 1.48
For C, standard SIESTA heuristics set lmxkb to 3
 (one more than the basis l, including polarization orbitals).
Use PS.lmax or PS.KBprojectors blocks to override.
For N, standard SIESTA heuristics set lmxkb to 3
 (one more than the basis l, including polarization orbitals).
Use PS.lmax or PS.KBprojectors blocks to override.

<basis_specs>
===============================================================================
C                    Z=   6    Mass=  12.010        Charge= 0.17977+309
Lmxo=1 Lmxkb= 3    BasisType=split      Semic=F
L=0  Nsemic=0  Cnfigmx=2
          n=1  nzeta=2  polorb=0
            splnorm:   0.15000    
               vcte:    0.0000    
               rinn:    0.0000    
                rcs:    0.0000      0.0000    
            lambdas:    1.0000      1.0000    
L=1  Nsemic=0  Cnfigmx=2
          n=1  nzeta=2  polorb=1
            splnorm:   0.15000    
               vcte:    0.0000    
               rinn:    0.0000    
                rcs:    0.0000      0.0000    
            lambdas:    1.0000      1.0000    
-------------------------------------------------------------------------------
L=0  Nkbl=1  erefs: 0.17977+309
L=1  Nkbl=1  erefs: 0.17977+309
L=2  Nkbl=1  erefs: 0.17977+309
L=3  Nkbl=1  erefs: 0.17977+309
===============================================================================
</basis_specs>

atom: Called for C                     (Z =   6)

read_vps: Pseudopotential generation method:
read_vps: ATM3      Troullier-Martins                       
Total valence charge:    4.00000

read_vps: Pseudopotential includes a core correction:
read_vps: Pseudo-core for xc-correction

xc_check: Exchange-correlation functional:
xc_check: GGA Perdew, Burke & Ernzerhof 1996
V l=0 = -2*Zval/r beyond r=  1.5227
V l=1 = -2*Zval/r beyond r=  1.5227
V l=2 = -2*Zval/r beyond r=  1.5227
V l=3 = -2*Zval/r beyond r=  1.5038
All V_l potentials equal beyond r=  1.5227
This should be close to max(r_c) in ps generation
All pots = -2*Zval/r beyond r=  1.5227

VLOCAL1: 99.0% of the norm of Vloc inside     18.722 Ry
VLOCAL1: 99.9% of the norm of Vloc inside     42.668 Ry
atom: Maximum radius for 4*pi*r*r*local-pseudopot. charge    1.83678
atom: Maximum radius for r*vlocal+2*Zval:    1.58088
GHOST: No ghost state for L =  0
GHOST: No ghost state for L =  1
GHOST: No ghost state for L =  2
GHOST: No ghost state for L =  3

KBgen: Kleinman-Bylander projectors: 
   l= 0   rc=  1.704034   el= -1.009801   Ekb=  5.335044   kbcos=  0.316824
   l= 1   rc=  1.704034   el= -0.388707   Ekb= -3.785862   kbcos= -0.366464
   l= 2   rc=  1.791422   el=  0.001971   Ekb= -0.970471   kbcos= -0.009212
   l= 3   rc=  1.859892   el=  0.003065   Ekb= -0.399525   kbcos= -0.001223

KBgen: Total number of  Kleinman-Bylander projectors:   16
atom: -------------------------------------------------------------------------

atom: SANKEY-TYPE ORBITALS:
atom: Selected multiple-zeta basis: split     

SPLIT: Orbitals with angular momentum L= 0

SPLIT: Basis orbitals for state 2s

SPLIT: PAO cut-off radius determined from an
SPLIT: energy shift=  0.007350 Ry

   izeta = 1
                 lambda =    1.000000
                     rc =    4.632753
                 energy =   -1.002270
                kinetic =    0.855760
    potential(screened) =   -1.858031
       potential(ionic) =   -5.417575

   izeta = 2
                 rmatch =    3.431921
              splitnorm =    0.150000
                 energy =   -0.867111
                kinetic =    1.300804
    potential(screened) =   -2.167915
       potential(ionic) =   -5.962684

SPLIT: Orbitals with angular momentum L= 1

SPLIT: Basis orbitals for state 2p

SPLIT: PAO cut-off radius determined from an
SPLIT: energy shift=  0.007350 Ry

   izeta = 1
                 lambda =    1.000000
                     rc =    5.658549
                 energy =   -0.381140
                kinetic =    2.399701
    potential(screened) =   -2.780841
       potential(ionic) =   -6.206085

   izeta = 2
                 rmatch =    3.653288
              splitnorm =    0.150000
                 energy =   -0.249149
                kinetic =    3.542762
    potential(screened) =   -3.791911
       potential(ionic) =   -7.581078

POLgen: Perturbative polarization orbital with L=  2

POLgen: Polarization orbital for state 2p

   izeta = 1
                     rc =    5.658549
                 energy =    1.109913
                kinetic =    2.304789
    potential(screened) =   -1.194876
       potential(ionic) =   -4.013592
atom: Total number of Sankey-type orbitals: 13

atm_pop: Valence configuration (for local Pseudopot. screening):
 2s( 2.00)                                                            
 2p( 2.00)                                                            
Vna: chval, zval:    4.00000   4.00000

Vna:  Cut-off radius for the neutral-atom potential:   5.658549
comcore: Pseudo-core radius Rcore=  1.791422

atom: _________________________________________________________________________

<basis_specs>
===============================================================================
N                    Z=   7    Mass=  14.010        Charge= 0.17977+309
Lmxo=1 Lmxkb= 3    BasisType=split      Semic=F
L=0  Nsemic=0  Cnfigmx=2
          n=1  nzeta=2  polorb=0
            splnorm:   0.15000    
               vcte:    0.0000    
               rinn:    0.0000    
                rcs:    0.0000      0.0000    
            lambdas:    1.0000      1.0000    
L=1  Nsemic=0  Cnfigmx=2
          n=1  nzeta=2  polorb=1
            splnorm:   0.15000    
               vcte:    0.0000    
               rinn:    0.0000    
                rcs:    0.0000      0.0000    
            lambdas:    1.0000      1.0000    
-------------------------------------------------------------------------------
L=0  Nkbl=1  erefs: 0.17977+309
L=1  Nkbl=1  erefs: 0.17977+309
L=2  Nkbl=1  erefs: 0.17977+309
L=3  Nkbl=1  erefs: 0.17977+309
===============================================================================
</basis_specs>

atom: Called for N                     (Z =   7)

read_vps: Pseudopotential generation method:
read_vps: ATM3      Troullier-Martins                       
Total valence charge:    5.00000

read_vps: Pseudopotential includes a core correction:
read_vps: Pseudo-core for xc-correction

xc_check: Exchange-correlation functional:
xc_check: GGA Perdew, Burke & Ernzerhof 1996
V l=0 = -2*Zval/r beyond r=  1.4606
V l=1 = -2*Zval/r beyond r=  1.4606
V l=2 = -2*Zval/r beyond r=  1.4606
V l=3 = -2*Zval/r beyond r=  1.4606
All V_l potentials equal beyond r=  1.4606
This should be close to max(r_c) in ps generation
All pots = -2*Zval/r beyond r=  1.4606

VLOCAL1: 99.0% of the norm of Vloc inside     20.347 Ry
VLOCAL1: 99.9% of the norm of Vloc inside     46.372 Ry
atom: Maximum radius for 4*pi*r*r*local-pseudopot. charge    1.76189
atom: Maximum radius for r*vlocal+2*Zval:    1.53550
GHOST: No ghost state for L =  0
GHOST: No ghost state for L =  1
GHOST: No ghost state for L =  2
GHOST: No ghost state for L =  3

KBgen: Kleinman-Bylander projectors: 
   l= 0   rc=  1.634559   el= -1.363963   Ekb=  5.296955   kbcos=  0.335621
   l= 1   rc=  1.614250   el= -0.521451   Ekb= -5.259161   kbcos= -0.433408
   l= 2   rc=  1.718383   el=  0.001991   Ekb= -1.271464   kbcos= -0.007566
   l= 3   rc=  1.761893   el=  0.003093   Ekb= -0.494769   kbcos= -0.001015

KBgen: Total number of  Kleinman-Bylander projectors:   16
atom: -------------------------------------------------------------------------

atom: SANKEY-TYPE ORBITALS:
atom: Selected multiple-zeta basis: split     

SPLIT: Orbitals with angular momentum L= 0

SPLIT: Basis orbitals for state 2s

SPLIT: PAO cut-off radius determined from an
SPLIT: energy shift=  0.007350 Ry

   izeta = 1
                 lambda =    1.000000
                     rc =    4.071465
                 energy =   -1.356470
                kinetic =    1.176977
    potential(screened) =   -2.533447
       potential(ionic) =   -8.057990

   izeta = 2
                 rmatch =    2.905100
              splitnorm =    0.150000
                 energy =   -1.158343
                kinetic =    1.813009
    potential(screened) =   -2.971352
       potential(ionic) =   -8.901931

SPLIT: Orbitals with angular momentum L= 1

SPLIT: Basis orbitals for state 2p

SPLIT: PAO cut-off radius determined from an
SPLIT: energy shift=  0.007350 Ry

   izeta = 1
                 lambda =    1.000000
                     rc =    4.972977
                 energy =   -0.513884
                kinetic =    3.441732
    potential(screened) =   -3.955616
       potential(ionic) =   -9.287901

   izeta = 2
                 rmatch =    3.054066
              splitnorm =    0.150000
                 energy =   -0.318226
                kinetic =    5.125348
    potential(screened) =   -5.443573
       potential(ionic) =  -11.380999

POLgen: Perturbative polarization orbital with L=  2

POLgen: Polarization orbital for state 2p

   izeta = 1
                     rc =    4.972977
                 energy =    1.607437
                kinetic =    3.268125
    potential(screened) =   -1.660688
       potential(ionic) =   -5.973652
atom: Total number of Sankey-type orbitals: 13

atm_pop: Valence configuration (for local Pseudopot. screening):
 2s( 2.00)                                                            
 2p( 3.00)                                                            
Vna: chval, zval:    5.00000   5.00000

Vna:  Cut-off radius for the neutral-atom potential:   4.972977
comcore: Pseudo-core radius Rcore=  1.554824

atom: _________________________________________________________________________

prinput: Basis input ----------------------------------------------------------

PAO.BasisType split     

%block ChemicalSpeciesLabel
    1    6 C                       # Species index, atomic number, species label
    2    7 N                       # Species index, atomic number, species label
%endblock ChemicalSpeciesLabel

%block PAO.Basis                 # Define Basis set
C                     2                    # Species label, number of l-shells
 n=2   0   2                         # n, l, Nzeta 
   4.633      3.432   
   1.000      1.000   
 n=2   1   2 P   1                   # n, l, Nzeta, Polarization, NzetaPol
   5.659      3.653   
   1.000      1.000   
N                     2                    # Species label, number of l-shells
 n=2   0   2                         # n, l, Nzeta 
   4.071      2.905   
   1.000      1.000   
 n=2   1   2 P   1                   # n, l, Nzeta, Polarization, NzetaPol
   4.973      3.054   
   1.000      1.000   
%endblock PAO.Basis

prinput: ----------------------------------------------------------------------

coor:   Atomic-coordinates input format  =     Cartesian coordinates
coor:                                          (in Angstroms)

siesta: Atomic coordinates (Bohr) and species
siesta:      2.23554   1.32097   0.00000  1        1
siesta:     32.50328  21.48508   0.00000  1        2
siesta:     34.83141  22.82873   0.00000  1        3
siesta:     34.83116  17.45226   0.00000  1        4
siesta:     37.15930  18.79590   0.00000  1        5
siesta:     32.50291  13.41944   0.00000  1        6
siesta:     34.83104  14.76308   0.00000  1        7
siesta:     30.17465   9.38661   0.00000  1        8
siesta:     32.50278  10.73026   0.00000  1        9
siesta:     27.84639   5.35379   0.00000  1       10
siesta:     30.17453   6.69743   0.00000  1       11
siesta:     27.84714  21.48508   0.00000  1       12
siesta:     30.17527  22.82873   0.00000  1       13
siesta:      6.89168   1.32097   0.00000  1       14
siesta:      9.21981   2.66461   0.00000  1       15
siesta:     11.54782   1.32097   0.00000  1       16
siesta:     13.87595   2.66461   0.00000  1       17
siesta:     16.20396   1.32097   0.00000  1       18
siesta:     18.53210   2.66461   0.00000  1       19
siesta:     23.19013   2.66461   0.00000  1       20
siesta:     25.51813   1.32097   0.00000  1       21
siesta:     27.84627   2.66461   0.00000  1       22
siesta:      4.56380   5.35379   0.00000  1       23
siesta:      6.89193   6.69743   0.00000  1       24
siesta:      9.21994   5.35379   0.00000  1       25
siesta:     11.54807   6.69743   0.00000  1       26
siesta:     13.87608   5.35379   0.00000  1       27
siesta:     18.53411   5.35379   0.00000  1       28
siesta:     20.86224   6.69743   0.00000  1       29
siesta:     23.19025   5.35379   0.00000  1       30
siesta:     25.51838   6.69743   0.00000  1       31
siesta:      9.22019  10.73026   0.00000  1       32
siesta:     11.54820   9.38661   0.00000  1       33
siesta:     13.87633  10.73026   0.00000  1       34
siesta:     18.53247  10.73026   0.00000  1       35
siesta:     20.86237   9.38661   0.00000  1       36
siesta:     23.19050  10.73026   0.00000  1       37
siesta:      9.22031  13.41944   0.00000  1       38
siesta:     11.54845  14.76308   0.00000  1       39
siesta:     13.87645  13.41944   0.00000  1       40
siesta:     16.20459  14.76308   0.00000  1       41
siesta:     18.53448  13.41944   0.00000  1       42
siesta:     20.86262  14.76308   0.00000  1       43
siesta:     13.87670  18.79590   0.00000  1       44
siesta:     16.20471  17.45226   0.00000  1       45
siesta:     18.53284  18.79590   0.00000  1       46
siesta:     13.87683  21.48508   0.00000  1       47
siesta:     16.20496  22.82873   0.00000  1       48
siesta:     18.53486  21.48508   0.00000  1       49
siesta:     20.86299  22.82873   0.00000  1       50
siesta:     27.84664  10.73026   0.00000  1       51
siesta:     23.19063  13.41944   0.00000  1       52
siesta:     25.51876  14.76308   0.00000  1       53
siesta:     23.19088  18.79590   0.00000  1       54
siesta:     27.84677  13.41944   0.00000  1       55
siesta:     30.17490  14.76308   0.00000  1       56
siesta:     25.51888  17.45226   0.00000  1       57
siesta:     27.84702  18.79590   0.00000  1       58
siesta:     23.19100  21.48508   0.00000  1       59
siesta:     25.51913  22.82873   0.00000  1       60
siesta:     32.50316  18.79590   0.00000  1       61
siesta:     37.16131  21.48508   0.00000  1       62
siesta:     39.48945  22.82873   0.00000  1       63
siesta:      4.56367   2.66461   0.00000  2       64
siesta:     20.86199   1.32097   0.00000  2       65
siesta:     16.20421   6.69743   0.00000  2       66
siesta:      6.89205   9.38661   0.00000  2       67
siesta:     16.20434   9.38661   0.00000  2       68
siesta:     11.54857  17.45226   0.00000  2       69
siesta:     25.51851   9.38661   0.00000  2       70
siesta:     20.86274  17.45226   0.00000  2       71
siesta:     30.17503  17.45226   0.00000  2       72

siesta: System type = slab      

initatomlists: Number of atoms, orbitals, and projectors:     72   936  1152

siesta: ******************** Simulation parameters ****************************
siesta:
siesta: The following are some of the parameters of the simulation.
siesta: A complete list of the parameters used, including default values,
siesta: can be found in file out.fdf
siesta:
redata: Non-Collinear-spin run           =     F
redata: SpinPolarized (Up/Down) run      =     F
redata: Number of spin components        =     1
redata: Long output                      =     F
redata: Number of Atomic Species         =        2
redata: Charge density info will appear in .RHO file
redata: Write Mulliken Pop.              =     NO
redata: Mesh Cutoff                      =   200.0000  Ry
redata: Net charge of the system         =     0.0000 |e|
redata: Max. number of SCF Iter          =      500
redata: SCF convergence failure will abort job
redata: Performing Pulay mixing using    =    10 iterations
redata: Mix DM in first SCF step ?       =     F
redata: Write Pulay info on disk?        =     F
redata: Discard 1st Pulay DM after  kick =     F
redata: New DM Mixing Weight             =     0.0500
redata: New DM Occupancy tolerance       = 0.000000000001
redata: No kicks to SCF
redata: DM Mixing Weight for Kicks       =     0.5000
redata: DM Tolerance for SCF             =     0.000100
redata: Require Energy convergence for SCF =     F
redata: DM Energy tolerance for SCF      =     0.000100 eV
redata: Require Harris convergence for SCF =     F
redata: DM Harris energy tolerance for SCF =     0.000100 eV
redata: Using Saved Data (generic)   =     F
redata: Use continuation files for DM    =     T
redata: Neglect nonoverlap interactions  =     F
redata: Method of Calculation            =     Diagonalization
redata: Divide and Conquer               =     T
redata: Electronic Temperature           =     0.0019  Ry
redata: Fix the spin of the system       =     F
redata: Dynamics option                  =     Verlet MD run
redata: Initial MD time step             =        1
redata:   Final MD time step             =        1
redata: Length of MD time step           =     1.0000  fs
redata: Initial Temperature of MD run    =     0.0000  K
redata: Perform a MD quench              =     F
redata: ***********************************************************************
Total number of electrons:   297.000000
Total ionic charge:   297.000000

* ProcessorY, Blocksize:    2  24

k-point displ. along   1 input, could be:     0.00    0.50
k-point displ. along   2 input, could be:     0.00    0.50
 Kpoints in:          364 . Kpoints trimmed:          352

siesta: k-grid: Number of k-points =   352
siesta: k-grid: Cutoff (effective) =     5.000 Ang
siesta: k-grid: Supercell and displacements
siesta: k-grid:   26   0   0      0.000
siesta: k-grid:    0  26   0      0.000
siesta: k-grid:    0   0   1      0.000
Naive supercell factors:     2    2    2

superc: Internal auxiliary supercell:     2 x     2 x     2  =       8
superc: Number of atoms, orbitals, and projectors:    576   7488   9216

* Maximum dynamic memory allocated =     6 MB

siesta:                 ==============================
                            Begin MD step =      1
                        ==============================

superc: Internal auxiliary supercell:     2 x     2 x     2  =       8
superc: Number of atoms, orbitals, and projectors:    576   7488   9216

outcell: Unit cell vectors (Ang):
       14.785000    0.000000    0.000000
        7.393000   12.805052    0.000000
        0.000000    0.000000   10.000000

outcell: Cell vector modules (Ang)   :   14.785000   14.786000   10.000000
outcell: Cell angles (23,13,12) (deg):     90.0000     90.0000     60.0000
outcell: Cell volume (Ang**3)        :   1893.2269
New_DM. Step:     1
Initializing Density Matrix...

iodm: Reading Density Matrix from files
 Read DM has different structure. Fixing...

InitMesh: MESH =   120 x   120 x    90 =     1296000
InitMesh: Mesh cutoff (required, used) =   200.000   223.865 Ry

* Maximum dynamic memory allocated =   187 MB

stepf: Fermi-Dirac step function

siesta: Program's energy decomposition (eV):
siesta: Ebs     =     -4391.927574
siesta: Eions   =     19849.732669
siesta: Ena     =      4064.291557
siesta: Ekin    =      8470.238340
siesta: Enl     =      -987.540759
siesta: DEna    =      -305.832917
siesta: DUscf   =       183.186243
siesta: DUext   =         0.000000
siesta: Exc     =     -4275.211288
siesta: eta*DQ  =         0.000000
siesta: Emadel  =         0.000000
siesta: Emeta   =         0.000000
siesta: Emolmec =         0.000000
siesta: Ekinion =         0.000000
siesta: Eharris =    -13216.814903
siesta: Etot    =    -12700.601493
siesta: FreeEng =    -12700.601493

siesta: iscf   Eharris(eV)      E_KS(eV)   FreeEng(eV)   dDmax  Ef(eV)
siesta:    1   -13216.8149   -12700.6015   -12700.6015  3.3335 -2.8750
timer: Routine,Calls,Time,% = IterSCF        1    8183.254  99.85
elaps: Routine,Calls,Wall,% = IterSCF        1    1024.605  99.85
siesta:    2   -25907.5791   -10008.8851   -10008.9367 56.1012-22.6803
siesta:    3   -12945.5559   -12716.2197   -12716.2599  0.7706 -2.9688
siesta:    4   -12884.2839   -12724.9758   -12724.9941  0.6690 -3.0124
siesta:    5   -12767.3042   -12735.5048   -12735.5283  0.5614 -2.9608
siesta:    6   -12752.6069   -12734.5132   -12734.5501  0.4708 -2.9906
siesta:    7   -12742.2602   -12730.6697   -12730.7091  0.3762 -3.0572
siesta:    8   -12741.6975   -12730.6093   -12730.6445  0.4580 -3.1581
siesta:    9   -12741.4118   -12731.3904   -12731.4218  0.3017 -3.3426
siesta:   10   -12740.9246   -12732.5183   -12732.5541  0.1085 -3.5394
siesta:   11   -12739.8948   -12733.0515   -12733.0877  0.0804 -3.5268
siesta:   12   -12739.4457   -12734.1099   -12734.1519  0.1116 -3.5393
siesta:   13   -12739.2549   -12734.6149   -12734.6553  0.0905 -3.5148
siesta:   14   -12739.2874   -12735.4141   -12735.4540  0.0781 -3.4843
siesta:   15   -12739.2100   -12736.6310   -12736.6693  0.0355 -3.4404
siesta:   16   -12739.1908   -12737.2967   -12737.3372  0.0178 -3.4210
siesta:   17   -12739.1727   -12737.8348   -12737.8761  0.0080 -3.4073
siesta:   18   -12739.1709   -12738.1585   -12738.1986  0.0066 -3.4052
siesta:   19   -12739.1705   -12738.3372   -12738.3772  0.0044 -3.4069
siesta:   20   -12739.1700   -12738.6178   -12738.6578  0.0028 -3.4093
siesta:   21   -12739.1693   -12738.8979   -12738.9380  0.0015 -3.4103
siesta:   22   -12739.1690   -12738.9420   -12738.9823  0.0012 -3.4107
siesta:   23   -12739.1687   -12739.0343   -12739.0746  0.0013 -3.4117
siesta:   24   -12739.1687   -12739.0617   -12739.1020  0.0010 -3.4117
siesta:   25   -12739.1686   -12739.0731   -12739.1134  0.0009 -3.4118
siesta:   26   -12739.1686   -12739.1164   -12739.1567  0.0005 -3.4115
siesta:   27   -12739.1686   -12739.1271   -12739.1674  0.0005 -3.4114
siesta:   28   -12739.1686   -12739.1469   -12739.1872  0.0004 -3.4112
siesta:   29   -12739.1686   -12739.1590   -12739.1993  0.0002 -3.4113
siesta:   30   -12739.1686   -12739.1607   -12739.2010  0.0001 -3.4113

siesta: E_KS(eV) =           -12739.1616

siesta: E_KS - E_eggbox =    -12739.1616

siesta: Atomic forces (eV/Ang):
----------------------------------------
   Tot    0.231127   -0.250578    0.000000
----------------------------------------
   Max    1.204419
   Res    0.334384    sqrt( Sum f_i^2 / 3N )
----------------------------------------
   Max    1.204419    constrained

Stress-tensor-Voigt (kbar):       -0.19        0.13        0.14       -0.93        0.00        0.00
(Free)E + p*V (eV/cell)   -12739.2355
Target enthalpy (eV/cell)   -12739.2019

siesta: Stress tensor (static) (eV/Ang**3):
        -0.000119   -0.000582    0.000000
        -0.000582    0.000082    0.000000
         0.000000    0.000000    0.000090

siesta: Pressure (static):         -0.02846341  kBar

siesta: Stress tensor (total) (eV/Ang**3):
        -0.000119   -0.000582    0.000000
        -0.000582    0.000082    0.000000
         0.000000    0.000000    0.000090

siesta: Pressure (total):         -0.02846341  kBar

siesta: Temp_ion =       0.000 K

* Maximum dynamic memory allocated =   203 MB

siesta: Program's energy decomposition (eV):
siesta: Ebs     =     -4185.147326
siesta: Eions   =     19849.732669
siesta: Ena     =      4064.291557
siesta: Ekin    =      8580.078238
siesta: Enl     =     -1058.543646
siesta: DEna    =      -247.573570
siesta: DUscf   =        22.708622
siesta: DUext   =         0.000000
siesta: Exc     =     -4250.390090
siesta: eta*DQ  =         0.000000
siesta: Emadel  =         0.000000
siesta: Emeta   =         0.000000
siesta: Emolmec =         0.000000
siesta: Ekinion =         0.000000
siesta: Eharris =    -12739.168626
siesta: Etot    =    -12739.161557
siesta: FreeEng =    -12739.201856

siesta: Final energy (eV):
siesta:  Band Struct. =   -4185.147326
siesta:       Kinetic =    8580.078238
siesta:       Hartree =   24802.657183
siesta:    Ext. field =       0.000000
siesta:   Exch.-corr. =   -4250.390090
siesta:  Ion-electron =  -57581.738212
siesta:       Ion-ion =   15710.231323
siesta:       Ekinion =       0.000000
siesta:         Total =  -12739.161557

siesta: Atomic forces (eV/Ang):
siesta:      1    0.326818    0.225828    0.000000
siesta:      2    0.053562   -0.292923    0.000000
siesta:      3    0.009560    0.477483    0.000000
siesta:      4    0.057677   -0.479426    0.000000
siesta:      5    0.250361    0.093993    0.000000
siesta:      6    0.184593    0.142717    0.000000
siesta:      7    0.076049    0.057450    0.000000
siesta:      8    0.105507    0.397147    0.000000
siesta:      9    0.081145   -0.188828    0.000000
siesta:     10   -0.349918    0.872684    0.000000
siesta:     11    0.390318   -1.204419    0.000000
siesta:     12    0.569893   -0.433731    0.000000
siesta:     13   -0.409716    0.685068    0.000000
siesta:     14   -0.408655   -0.374285    0.000000
siesta:     15   -0.533848   -0.011885    0.000000
siesta:     16   -0.215738    0.009994    0.000000
siesta:     17    0.449534    0.605386    0.000000
siesta:     18    0.430495   -0.893328    0.000000
siesta:     19    0.250410    0.195435    0.000000
siesta:     20   -0.299865   -0.174935    0.000000
siesta:     21   -0.500184   -0.674660    0.000000
siesta:     22    0.488993    0.111279    0.000000
siesta:     23   -0.242906    0.069538    0.000000
siesta:     24   -0.027505    0.061409    0.000000
siesta:     25    0.261427    0.656865    0.000000
siesta:     26    0.616103   -1.106727    0.000000
siesta:     27   -0.199240    0.923063    0.000000
siesta:     28    0.267857    0.459275    0.000000
siesta:     29   -0.750407   -0.314656    0.000000
siesta:     30   -0.338613   -0.143735    0.000000
siesta:     31    0.404013    0.098401    0.000000
siesta:     32   -0.011002   -0.618054    0.000000
siesta:     33   -0.010481    0.889940    0.000000
siesta:     34   -0.266309   -0.898299    0.000000
siesta:     35    0.088384   -0.553347    0.000000
siesta:     36    0.012699    0.206234    0.000000
siesta:     37    0.241543   -0.404296    0.000000
siesta:     38   -0.228097    0.412350    0.000000
siesta:     39   -0.065819   -0.085698    0.000000
siesta:     40    0.325637    0.294450    0.000000
siesta:     41   -0.007351    0.180798    0.000000
siesta:     42   -0.345801    0.017393    0.000000
siesta:     43    0.004612    0.265104    0.000000
siesta:     44   -0.216750   -0.177682    0.000000
siesta:     45   -0.348819   -0.519434    0.000000
siesta:     46    0.687383    0.598814    0.000000
siesta:     47   -0.846535   -0.148652    0.000000
siesta:     48    0.522884    0.386701    0.000000
siesta:     49    0.170956   -1.084916    0.000000
siesta:     50   -0.225658    1.092017    0.000000
siesta:     51   -0.034277   -0.447879    0.000000
siesta:     52    0.270284    0.248159    0.000000
siesta:     53   -0.005528   -0.100126    0.000000
siesta:     54   -0.524152    0.036334    0.000000
siesta:     55   -0.225735    0.266956    0.000000
siesta:     56    0.045785    0.189706    0.000000
siesta:     57    0.062257   -0.250932    0.000000
siesta:     58    0.404072   -0.019455    0.000000
siesta:     59   -0.132157   -0.338971    0.000000
siesta:     60   -0.095102   -0.183228    0.000000
siesta:     61   -0.302683    0.209838    0.000000
siesta:     62   -0.105929   -0.206033    0.000000
siesta:     63    0.514584    0.306453    0.000000
siesta:     64    0.076986    0.116197    0.000000
siesta:     65    0.024653    0.046246    0.000000
siesta:     66   -0.007504   -0.885781    0.000000
siesta:     67   -0.095611    0.175996    0.000000
siesta:     68    0.133081    0.830101    0.000000
siesta:     69    0.025028    0.074924    0.000000
siesta:     70   -0.233508    0.371101    0.000000
siesta:     71   -0.019398   -0.283126    0.000000
siesta:     72   -0.023215   -0.109954    0.000000
siesta: ----------------------------------------
siesta:    Tot    0.231127   -0.250578    0.000000

siesta: Stress tensor (static) (eV/Ang**3):
siesta:    -0.000119   -0.000582    0.000000
siesta:    -0.000582    0.000082    0.000000
siesta:     0.000000    0.000000    0.000090

siesta: Cell volume =       1893.226895 Ang**3

siesta: Pressure (static):
siesta:                Solid            Molecule  Units
siesta:          -0.00000019         -0.00003560  Ry/Bohr**3
siesta:          -0.00001777         -0.00326852  eV/Ang**3
siesta:          -0.02846341         -5.23680930  kBar
(Free)E+ p_basis*V_orbitals  =      -12709.750909
(Free)Eharris+ p_basis*V_orbitals  =      -12709.758820

siesta: Electric dipole (a.u.)  =    0.000000    0.000000    0.000000
siesta: Electric dipole (Debye) =    0.000000    0.000000    0.000000

* Maximum dynamic memory allocated : Node    0 =   203 MB
* Maximum dynamic memory allocated : Node    1 =    74 MB
* Maximum dynamic memory allocated : Node    2 =    76 MB
* Maximum dynamic memory allocated : Node    3 =   192 MB
* Maximum dynamic memory allocated : Node    4 =   203 MB
* Maximum dynamic memory allocated : Node    5 =    74 MB
* Maximum dynamic memory allocated : Node    6 =    76 MB
* Maximum dynamic memory allocated : Node    7 =   187 MB

* Maximum memory occured during matrixMtoO                    

timer: CPU execution times:
timer:  Routine       Calls   Time/call    Tot.time        %
timer:  siesta            1  242534.170  242534.170   100.00
timer:  Setup             1       3.082       3.082     0.00
timer:  bands             1       0.009       0.009     0.00
timer:  writewave         1       0.016       0.016     0.00
timer:  KSV_init          1       0.005       0.005     0.00
timer:  IterMD            1  242522.939  242522.939   100.00
timer:  hsparse           1       0.266       0.266     0.00
timer:  overlap           1       6.351       6.351     0.00
timer:  IterSCF          30    8078.458  242353.733    99.93
timer:  kinefsm           2       3.260       6.520     0.00
timer:  nlefsm            2      18.849      37.697     0.02
timer:  DHSCF            31      90.266    2798.252     1.15
timer:  DHSCF1            1       0.806       0.806     0.00
timer:  DHSCF2            1      34.795      34.795     0.01
timer:  REORD           250       0.014       3.380     0.00
timer:  POISON           32       3.783     121.053     0.05
timer:  DHSCF3           31      88.026    2728.803     1.13
timer:  rhoofd           31      16.357     507.066     0.21
timer:  cellXC           31       3.595     111.460     0.05
timer:  vmat             31      44.226    1370.993     0.57
timer:  MolMec            2       0.001       0.002     0.00
timer:  diagon           30    7986.685  239600.546    98.79
timer:  c-eigval      10560       7.267   76739.622    31.64
timer:  c-buildHS     10560       0.217    2290.360     0.94
timer:  cdiag         21120       7.445  157232.769    64.83
timer:  cdiag1        21120       0.475   10037.096     4.14
timer:  cdiag2        21120       1.999   42217.177    17.41
timer:  cdiag3        21120       4.179   88249.963    36.39
timer:  cdiag4        21120       0.246    5203.419     2.15
timer:  c-eigvec      10560       7.933   83772.345    34.54
timer:  c-buildD      10560       7.477   78961.107    32.56
timer:  DHSCF4            1      31.078      31.078     0.01
timer:  dfscf             1      29.244      29.244     0.01
timer:  overfsm           1       0.373       0.373     0.00
timer:  optical           1       7.131       7.131     0.00
  

elaps: ELAPSED times:
elaps:  Routine       Calls   Time/call    Tot.time        %
elaps:  siesta            1   30364.915   30364.915   100.00
elaps:  Setup             1       0.385       0.385     0.00
elaps:  bands             1       0.001       0.001     0.00
elaps:  writewave         1       0.002       0.002     0.00
elaps:  KSV_init          1       0.000       0.000     0.00
elaps:  IterMD            1   30363.510   30363.510   100.00
elaps:  hsparse           1       0.032       0.032     0.00
elaps:  overlap           1       0.524       0.524     0.00
elaps:  IterSCF          30    1011.411   30342.338    99.93
elaps:  kinefsm           2       0.275       0.550     0.00
elaps:  nlefsm            2       2.517       5.035     0.02
elaps:  DHSCF            31      11.397     353.300     1.16
elaps:  DHSCF1            1       0.110       0.110     0.00
elaps:  DHSCF2            1       4.344       4.344     0.01
elaps:  REORD           250       0.002       0.465     0.00
elaps:  POISON           32       0.473      15.150     0.05
elaps:  DHSCF3           31      11.014     341.435     1.12
elaps:  rhoofd           31       3.532     109.489     0.36
elaps:  cellXC           31       0.449      13.917     0.05
elaps:  vmat             31       5.533     171.529     0.56
elaps:  MolMec            2       0.000       0.000     0.00
elaps:  diagon           30     999.963   29998.879    98.79
elaps:  c-eigval      10560       0.909    9602.714    31.62
elaps:  c-buildHS     10560       0.029     303.918     1.00
elaps:  cdiag         21120       0.913   19276.166    63.48
elaps:  cdiag1        21120       0.057    1205.822     3.97
elaps:  cdiag2        21120       0.250    5282.497    17.40
elaps:  cdiag3        21120       0.524   11059.146    36.42
elaps:  cdiag4        21120       0.032     677.940     2.23
elaps:  c-eigvec      10560       0.958   10117.878    33.32
elaps:  c-buildD      10560       0.972   10260.271    33.79
elaps:  DHSCF4            1       7.030       7.030     0.02
elaps:  dfscf             1       6.653       6.653     0.02
elaps:  overfsm           1       0.048       0.048     0.00
elaps:  optical           1       0.000       0.000     0.00
  
>> End of run:  29-NOV-2015  17:52:58
