Siesta Version:                                        siesta-3.2-pl-3
Architecture  : x86_64-unknown-linux-gnu--unknown
Compiler flags: mpiifort -g -O2 -fPIC -xSSE4.1 -fp-model source -shared-intel 
PARALLEL version

* Running on    8 nodes in parallel
>> Start of run:   8-DEC-2015  14:46:09

                           ***********************       
                           *  WELCOME TO SIESTA  *       
                           ***********************       

reinit: Reading from standard input
************************** Dump of input data file ****************************
#(1) General system descriptors
SystemName            GRP_doping    # Descriptive name of the system
SystemLabel           GRP_doping    # Short name for naming files
%include STRUCT.fdf
%include KPT.fdf
%include BASIS.fdf
#%include TS.fdf # for transiesta calculation
#(4) DFT, Grid, SCF
XC.functional         GGA           # LDA or GGA (default = LDA)
XC.authors            PBE           # CA (Ceperley-Aldr) = PZ
                                    #    (Perdew-Zunger) - LDA - Default
                                    # PW92 (Perdew-Wang-92) - LDA
                                    # PBE (Perdew-Burke-Ernzerhof) - GGA
MeshCutoff            200.000000    Ry      # Default: 50.0 Ry ~ 0.444 Bohr
                                    #         100.0 Ry ~ 0.314 Bohr
MaxSCFIterations      500           # Default: 50
DM.MixingWeight       0.05          # Default: 0.25
DM.NumberPulay        10            # Default: 0
DM.PulayOnFile        F             # SystemLabel.P1, SystemLabel.P2
DM.Tolerance          1.d-4         # Default: 1.d-4
DM.UseSaveDM          .true.        # because of the bug
SCFMustConverge       .true.
NeglNonOverlapInt     F             # Default: F
#(5) Eigenvalue problem: order-N or diagonalization
SolutionMethod        Diagon        # or Transiesta
ElectronicTemperature 300.0 K       # Default: 300.0 K
#(6) Molecular dynamics and relaxations
#MD.TypeOfRun          CG            # Type of dynamics:
#MD.VariableCell       F
#MD.NumCGsteps         0           # 0 for single-point / 100 for gopt
#MD.MaxCGDispl         0.2 Bohr      # Default: 0.2 Bohr
#MD.MaxForceTol        0.02 eV/Ang   # Default: 0.04 eV/Ang
#MD.MaxStressTol       1.0 GPa       # Default: 1.0 GPa
# Geometry Constraints
#%block GeometryConstraints
#	position from 1 to 44
#%endblock GeometryConstraints
BandLinesScale   pi/a
%block BandLines
 1   0.00000000  0.00000000  0.00000000
50   0.00000000  0.07809418  0.00000000
50   0.04509075  0.07809242  0.00000000
20   0.00000000  0.00000000  0.00000000
%endblock BandLines
************************** End of input data file *****************************

reinit: -----------------------------------------------------------------------
reinit: System Name: GRP_doping
reinit: -----------------------------------------------------------------------
reinit: System Label: GRP_doping                                                  
reinit: -----------------------------------------------------------------------

initatom: Reading input for the pseudopotentials and atomic orbitals ----------
 Species number:            1  Label: C Atomic number:           6
 Species number:            2  Label: B Atomic number:           5
Ground state valence configuration:   2s02  2p02
Reading pseudopotential information in formatted form from C.psf

Valence configuration for pseudopotential generation:
2s( 2.00) rc: 1.54
2p( 2.00) rc: 1.54
3d( 0.00) rc: 1.54
4f( 0.00) rc: 1.54
Ground state valence configuration:   2s02  2p01
Reading pseudopotential information in formatted form from B.psf

Valence configuration for pseudopotential generation:
2s( 2.00) rc: 1.74
2p( 1.00) rc: 1.74
3d( 0.00) rc: 1.74
4f( 0.00) rc: 1.74
For C, standard SIESTA heuristics set lmxkb to 3
 (one more than the basis l, including polarization orbitals).
Use PS.lmax or PS.KBprojectors blocks to override.
For B, standard SIESTA heuristics set lmxkb to 3
 (one more than the basis l, including polarization orbitals).
Use PS.lmax or PS.KBprojectors blocks to override.

<basis_specs>
===============================================================================
C                    Z=   6    Mass=  12.010        Charge= 0.17977+309
Lmxo=1 Lmxkb= 3    BasisType=split      Semic=F
L=0  Nsemic=0  Cnfigmx=2
          n=1  nzeta=2  polorb=0
            splnorm:   0.15000    
               vcte:    0.0000    
               rinn:    0.0000    
                rcs:    0.0000      0.0000    
            lambdas:    1.0000      1.0000    
L=1  Nsemic=0  Cnfigmx=2
          n=1  nzeta=2  polorb=1
            splnorm:   0.15000    
               vcte:    0.0000    
               rinn:    0.0000    
                rcs:    0.0000      0.0000    
            lambdas:    1.0000      1.0000    
-------------------------------------------------------------------------------
L=0  Nkbl=1  erefs: 0.17977+309
L=1  Nkbl=1  erefs: 0.17977+309
L=2  Nkbl=1  erefs: 0.17977+309
L=3  Nkbl=1  erefs: 0.17977+309
===============================================================================
</basis_specs>

atom: Called for C                     (Z =   6)

read_vps: Pseudopotential generation method:
read_vps: ATM3      Troullier-Martins                       
Total valence charge:    4.00000

read_vps: Pseudopotential includes a core correction:
read_vps: Pseudo-core for xc-correction

xc_check: Exchange-correlation functional:
xc_check: GGA Perdew, Burke & Ernzerhof 1996
V l=0 = -2*Zval/r beyond r=  1.5227
V l=1 = -2*Zval/r beyond r=  1.5227
V l=2 = -2*Zval/r beyond r=  1.5227
V l=3 = -2*Zval/r beyond r=  1.5038
All V_l potentials equal beyond r=  1.5227
This should be close to max(r_c) in ps generation
All pots = -2*Zval/r beyond r=  1.5227

VLOCAL1: 99.0% of the norm of Vloc inside     18.722 Ry
VLOCAL1: 99.9% of the norm of Vloc inside     42.668 Ry
atom: Maximum radius for 4*pi*r*r*local-pseudopot. charge    1.83678
atom: Maximum radius for r*vlocal+2*Zval:    1.58088
GHOST: No ghost state for L =  0
GHOST: No ghost state for L =  1
GHOST: No ghost state for L =  2
GHOST: No ghost state for L =  3

KBgen: Kleinman-Bylander projectors: 
   l= 0   rc=  1.704034   el= -1.009801   Ekb=  5.335044   kbcos=  0.316824
   l= 1   rc=  1.704034   el= -0.388707   Ekb= -3.785862   kbcos= -0.366464
   l= 2   rc=  1.791422   el=  0.001971   Ekb= -0.970471   kbcos= -0.009212
   l= 3   rc=  1.859892   el=  0.003065   Ekb= -0.399525   kbcos= -0.001223

KBgen: Total number of  Kleinman-Bylander projectors:   16
atom: -------------------------------------------------------------------------

atom: SANKEY-TYPE ORBITALS:
atom: Selected multiple-zeta basis: split     

SPLIT: Orbitals with angular momentum L= 0

SPLIT: Basis orbitals for state 2s

SPLIT: PAO cut-off radius determined from an
SPLIT: energy shift=  0.007350 Ry

   izeta = 1
                 lambda =    1.000000
                     rc =    4.632753
                 energy =   -1.002270
                kinetic =    0.855760
    potential(screened) =   -1.858031
       potential(ionic) =   -5.417575

   izeta = 2
                 rmatch =    3.431921
              splitnorm =    0.150000
                 energy =   -0.867111
                kinetic =    1.300804
    potential(screened) =   -2.167915
       potential(ionic) =   -5.962684

SPLIT: Orbitals with angular momentum L= 1

SPLIT: Basis orbitals for state 2p

SPLIT: PAO cut-off radius determined from an
SPLIT: energy shift=  0.007350 Ry

   izeta = 1
                 lambda =    1.000000
                     rc =    5.658549
                 energy =   -0.381140
                kinetic =    2.399701
    potential(screened) =   -2.780841
       potential(ionic) =   -6.206085

   izeta = 2
                 rmatch =    3.653288
              splitnorm =    0.150000
                 energy =   -0.249149
                kinetic =    3.542762
    potential(screened) =   -3.791911
       potential(ionic) =   -7.581078

POLgen: Perturbative polarization orbital with L=  2

POLgen: Polarization orbital for state 2p

   izeta = 1
                     rc =    5.658549
                 energy =    1.109913
                kinetic =    2.304789
    potential(screened) =   -1.194876
       potential(ionic) =   -4.013592
atom: Total number of Sankey-type orbitals: 13

atm_pop: Valence configuration (for local Pseudopot. screening):
 2s( 2.00)                                                            
 2p( 2.00)                                                            
Vna: chval, zval:    4.00000   4.00000

Vna:  Cut-off radius for the neutral-atom potential:   5.658549
comcore: Pseudo-core radius Rcore=  1.791422

atom: _________________________________________________________________________

<basis_specs>
===============================================================================
B                    Z=   5    Mass=  10.810        Charge= 0.17977+309
Lmxo=1 Lmxkb= 3    BasisType=split      Semic=F
L=0  Nsemic=0  Cnfigmx=2
          n=1  nzeta=2  polorb=0
            splnorm:   0.15000    
               vcte:    0.0000    
               rinn:    0.0000    
                rcs:    0.0000      0.0000    
            lambdas:    1.0000      1.0000    
L=1  Nsemic=0  Cnfigmx=2
          n=1  nzeta=2  polorb=1
            splnorm:   0.15000    
               vcte:    0.0000    
               rinn:    0.0000    
                rcs:    0.0000      0.0000    
            lambdas:    1.0000      1.0000    
-------------------------------------------------------------------------------
L=0  Nkbl=1  erefs: 0.17977+309
L=1  Nkbl=1  erefs: 0.17977+309
L=2  Nkbl=1  erefs: 0.17977+309
L=3  Nkbl=1  erefs: 0.17977+309
===============================================================================
</basis_specs>

atom: Called for B                     (Z =   5)

read_vps: Pseudopotential generation method:
read_vps: ATM3      Troullier-Martins                       
Total valence charge:    3.00000

read_vps: Pseudopotential includes a core correction:
read_vps: Pseudo-core for xc-correction

xc_check: Exchange-correlation functional:
xc_check: GGA Perdew, Burke & Ernzerhof 1996
V l=0 = -2*Zval/r beyond r=  1.7165
V l=1 = -2*Zval/r beyond r=  1.7165
V l=2 = -2*Zval/r beyond r=  1.7165
V l=3 = -2*Zval/r beyond r=  1.6951
All V_l potentials equal beyond r=  1.7165
This should be close to max(r_c) in ps generation
All pots = -2*Zval/r beyond r=  1.7165

VLOCAL1: 99.0% of the norm of Vloc inside     14.733 Ry
VLOCAL1: 99.9% of the norm of Vloc inside     33.577 Ry
atom: Maximum radius for 4*pi*r*r*local-pseudopot. charge    2.04484
atom: Maximum radius for r*vlocal+2*Zval:    1.75994
GHOST: No ghost state for L =  0
GHOST: No ghost state for L =  1
GHOST: No ghost state for L =  2
GHOST: No ghost state for L =  3

KBgen: Kleinman-Bylander projectors: 
   l= 0   rc=  1.897051   el= -0.693730   Ekb=  4.595746   kbcos=  0.286105
   l= 1   rc=  1.920920   el= -0.265236   Ekb= -2.350715   kbcos= -0.315747
   l= 2   rc=  2.044840   el=  0.002055   Ekb= -0.690767   kbcos= -0.013822
   l= 3   rc=  2.149707   el=  0.003188   Ekb= -0.315358   kbcos= -0.002055

KBgen: Total number of  Kleinman-Bylander projectors:   16
atom: -------------------------------------------------------------------------

atom: SANKEY-TYPE ORBITALS:
atom: Selected multiple-zeta basis: split     

SPLIT: Orbitals with angular momentum L= 0

SPLIT: Basis orbitals for state 2s

SPLIT: PAO cut-off radius determined from an
SPLIT: energy shift=  0.007350 Ry

   izeta = 1
                 lambda =    1.000000
                     rc =    5.422032
                 energy =   -0.686029
                kinetic =    0.576707
    potential(screened) =   -1.262736
       potential(ionic) =   -3.271094

   izeta = 2
                 rmatch =    4.222573
              splitnorm =    0.150000
                 energy =   -0.602132
                kinetic =    0.858975
    potential(screened) =   -1.461107
       potential(ionic) =   -3.582536

SPLIT: Orbitals with angular momentum L= 1

SPLIT: Basis orbitals for state 2p

SPLIT: PAO cut-off radius determined from an
SPLIT: energy shift=  0.007350 Ry

   izeta = 1
                 lambda =    1.000000
                     rc =    6.790259
                 energy =   -0.258578
                kinetic =    1.481412
    potential(screened) =   -1.739989
       potential(ionic) =   -3.657461

   izeta = 2
                 rmatch =    4.608740
              splitnorm =    0.150000
                 energy =   -0.173757
                kinetic =    2.186690
    potential(screened) =   -2.360447
       potential(ionic) =   -4.464260

POLgen: Perturbative polarization orbital with L=  2

POLgen: Polarization orbital for state 2p

   izeta = 1
                     rc =    6.790259
                 energy =    0.684082
                kinetic =    1.471481
    potential(screened) =   -0.787399
       potential(ionic) =   -2.406985
atom: Total number of Sankey-type orbitals: 13

atm_pop: Valence configuration (for local Pseudopot. screening):
 2s( 2.00)                                                            
 2p( 1.00)                                                            
Vna: chval, zval:    3.00000   3.00000

Vna:  Cut-off radius for the neutral-atom potential:   6.790259
comcore: Pseudo-core radius Rcore=  2.122997

atom: _________________________________________________________________________

prinput: Basis input ----------------------------------------------------------

PAO.BasisType split     

%block ChemicalSpeciesLabel
    1    6 C                       # Species index, atomic number, species label
    2    5 B                       # Species index, atomic number, species label
%endblock ChemicalSpeciesLabel

%block PAO.Basis                 # Define Basis set
C                     2                    # Species label, number of l-shells
 n=2   0   2                         # n, l, Nzeta 
   4.633      3.432   
   1.000      1.000   
 n=2   1   2 P   1                   # n, l, Nzeta, Polarization, NzetaPol
   5.659      3.653   
   1.000      1.000   
B                     2                    # Species label, number of l-shells
 n=2   0   2                         # n, l, Nzeta 
   5.422      4.223   
   1.000      1.000   
 n=2   1   2 P   1                   # n, l, Nzeta, Polarization, NzetaPol
   6.790      4.609   
   1.000      1.000   
%endblock PAO.Basis

prinput: ----------------------------------------------------------------------

coor:   Atomic-coordinates input format  =     Cartesian coordinates
coor:                                          (in Angstroms)

siesta: Atomic coordinates (Bohr) and species
siesta:      2.23554   1.32097   0.00000  1        1
siesta:      4.56367   2.66461   0.00000  1        2
siesta:     32.50328  21.48508   0.00000  1        3
siesta:     34.83141  22.82873   0.00000  1        4
siesta:     34.83116  17.45226   0.00000  1        5
siesta:     37.15930  18.79590   0.00000  1        6
siesta:     32.50291  13.41944   0.00000  1        7
siesta:     34.83104  14.76308   0.00000  1        8
siesta:     30.17465   9.38661   0.00000  1        9
siesta:     32.50278  10.73026   0.00000  1       10
siesta:     27.84639   5.35379   0.00000  1       11
siesta:     30.17453   6.69743   0.00000  1       12
siesta:     27.84714  21.48508   0.00000  1       13
siesta:     30.17527  22.82873   0.00000  1       14
siesta:      6.89168   1.32097   0.00000  1       15
siesta:      9.21981   2.66461   0.00000  1       16
siesta:     11.54782   1.32097   0.00000  1       17
siesta:     13.87595   2.66461   0.00000  1       18
siesta:     16.20396   1.32097   0.00000  1       19
siesta:     18.53210   2.66461   0.00000  1       20
siesta:     20.86199   1.32097   0.00000  1       21
siesta:     23.19013   2.66461   0.00000  1       22
siesta:     25.51813   1.32097   0.00000  1       23
siesta:     27.84627   2.66461   0.00000  1       24
siesta:      4.56380   5.35379   0.00000  1       25
siesta:      6.89193   6.69743   0.00000  1       26
siesta:      9.21994   5.35379   0.00000  1       27
siesta:     11.54807   6.69743   0.00000  1       28
siesta:     13.87608   5.35379   0.00000  1       29
siesta:     16.20421   6.69743   0.00000  1       30
siesta:     18.53411   5.35379   0.00000  1       31
siesta:     20.86224   6.69743   0.00000  1       32
siesta:     23.19025   5.35379   0.00000  1       33
siesta:     25.51838   6.69743   0.00000  1       34
siesta:      6.89205   9.38661   0.00000  1       35
siesta:      9.22019  10.73026   0.00000  1       36
siesta:     13.87633  10.73026   0.00000  1       37
siesta:     18.53247  10.73026   0.00000  1       38
siesta:     23.19050  10.73026   0.00000  1       39
siesta:      9.22031  13.41944   0.00000  1       40
siesta:     11.54845  14.76308   0.00000  1       41
siesta:     13.87645  13.41944   0.00000  1       42
siesta:     16.20459  14.76308   0.00000  1       43
siesta:     18.53448  13.41944   0.00000  1       44
siesta:     20.86262  14.76308   0.00000  1       45
siesta:     11.54857  17.45226   0.00000  1       46
siesta:     13.87670  18.79590   0.00000  1       47
siesta:     16.20471  17.45226   0.00000  1       48
siesta:     18.53284  18.79590   0.00000  1       49
siesta:     13.87683  21.48508   0.00000  1       50
siesta:     16.20496  22.82873   0.00000  1       51
siesta:     18.53486  21.48508   0.00000  1       52
siesta:     20.86299  22.82873   0.00000  1       53
siesta:     27.84664  10.73026   0.00000  1       54
siesta:     23.19063  13.41944   0.00000  1       55
siesta:     25.51876  14.76308   0.00000  1       56
siesta:     20.86274  17.45226   0.00000  1       57
siesta:     23.19088  18.79590   0.00000  1       58
siesta:     27.84677  13.41944   0.00000  1       59
siesta:     30.17490  14.76308   0.00000  1       60
siesta:     25.51888  17.45226   0.00000  1       61
siesta:     27.84702  18.79590   0.00000  1       62
siesta:     23.19100  21.48508   0.00000  1       63
siesta:     25.51913  22.82873   0.00000  1       64
siesta:     30.17503  17.45226   0.00000  1       65
siesta:     32.50316  18.79590   0.00000  1       66
siesta:     37.16131  21.48508   0.00000  1       67
siesta:     39.48945  22.82873   0.00000  1       68
siesta:     11.54820   9.38661   0.00000  2       69
siesta:     16.20434   9.38661   0.00000  2       70
siesta:     20.86237   9.38661   0.00000  2       71
siesta:     25.51851   9.38661   0.00000  2       72

siesta: System type = slab      

initatomlists: Number of atoms, orbitals, and projectors:     72   936  1152

siesta: ******************** Simulation parameters ****************************
siesta:
siesta: The following are some of the parameters of the simulation.
siesta: A complete list of the parameters used, including default values,
siesta: can be found in file out.fdf
siesta:
redata: Non-Collinear-spin run           =     F
redata: SpinPolarized (Up/Down) run      =     F
redata: Number of spin components        =     1
redata: Long output                      =     F
redata: Number of Atomic Species         =        2
redata: Charge density info will appear in .RHO file
redata: Write Mulliken Pop.              =     NO
redata: Mesh Cutoff                      =   200.0000  Ry
redata: Net charge of the system         =     0.0000 |e|
redata: Max. number of SCF Iter          =      500
redata: SCF convergence failure will abort job
redata: Performing Pulay mixing using    =    10 iterations
redata: Mix DM in first SCF step ?       =     F
redata: Write Pulay info on disk?        =     F
redata: Discard 1st Pulay DM after  kick =     F
redata: New DM Mixing Weight             =     0.0500
redata: New DM Occupancy tolerance       = 0.000000000001
redata: No kicks to SCF
redata: DM Mixing Weight for Kicks       =     0.5000
redata: DM Tolerance for SCF             =     0.000100
redata: Require Energy convergence for SCF =     F
redata: DM Energy tolerance for SCF      =     0.000100 eV
redata: Require Harris convergence for SCF =     F
redata: DM Harris energy tolerance for SCF =     0.000100 eV
redata: Using Saved Data (generic)   =     F
redata: Use continuation files for DM    =     T
redata: Neglect nonoverlap interactions  =     F
redata: Method of Calculation            =     Diagonalization
redata: Divide and Conquer               =     T
redata: Electronic Temperature           =     0.0019  Ry
redata: Fix the spin of the system       =     F
redata: Dynamics option                  =     Verlet MD run
redata: Initial MD time step             =        1
redata:   Final MD time step             =        1
redata: Length of MD time step           =     1.0000  fs
redata: Initial Temperature of MD run    =     0.0000  K
redata: Perform a MD quench              =     F
redata: ***********************************************************************
Total number of electrons:   284.000000
Total ionic charge:   284.000000

* ProcessorY, Blocksize:    2  24

k-point displ. along   1 input, could be:     0.00    0.50
k-point displ. along   2 input, could be:     0.00    0.50
 Kpoints in:          364 . Kpoints trimmed:          352

siesta: k-grid: Number of k-points =   352
siesta: k-grid: Cutoff (effective) =     5.000 Ang
siesta: k-grid: Supercell and displacements
siesta: k-grid:   26   0   0      0.000
siesta: k-grid:    0  26   0      0.000
siesta: k-grid:    0   0   1      0.000
Naive supercell factors:     2    2    2

superc: Internal auxiliary supercell:     2 x     2 x     2  =       8
superc: Number of atoms, orbitals, and projectors:    576   7488   9216

* Maximum dynamic memory allocated =     6 MB

siesta:                 ==============================
                            Begin MD step =      1
                        ==============================

superc: Internal auxiliary supercell:     2 x     2 x     2  =       8
superc: Number of atoms, orbitals, and projectors:    576   7488   9216

outcell: Unit cell vectors (Ang):
       14.785000    0.000000    0.000000
        7.393000   12.805052    0.000000
        0.000000    0.000000   10.000000

outcell: Cell vector modules (Ang)   :   14.785000   14.786000   10.000000
outcell: Cell angles (23,13,12) (deg):     90.0000     90.0000     60.0000
outcell: Cell volume (Ang**3)        :   1893.2269
New_DM. Step:     1
Initializing Density Matrix...

iodm: Reading Density Matrix from files

InitMesh: MESH =   120 x   120 x    90 =     1296000
InitMesh: Mesh cutoff (required, used) =   200.000   223.865 Ry

* Maximum dynamic memory allocated =   203 MB

stepf: Fermi-Dirac step function

siesta: Program's energy decomposition (eV):
siesta: Ebs     =     -3829.032319
siesta: Eions   =     17890.784226
siesta: Ena     =      3884.339895
siesta: Ekin    =      7643.062122
siesta: Enl     =      -748.094369
siesta: DEna    =      -310.821356
siesta: DUscf   =        30.259270
siesta: DUext   =         0.000000
siesta: Exc     =     -4054.347328
siesta: eta*DQ  =         0.000000
siesta: Emadel  =         0.000000
siesta: Emeta   =         0.000000
siesta: Emolmec =         0.000000
siesta: Ekinion =         0.000000
siesta: Eharris =    -11446.382699
siesta: Etot    =    -11446.385992
siesta: FreeEng =    -11446.385992

siesta: iscf   Eharris(eV)      E_KS(eV)   FreeEng(eV)   dDmax  Ef(eV)
siesta:    1   -11446.3827   -11446.3860   -11446.3860  0.0000 -5.4436
timer: Routine,Calls,Time,% = IterSCF        1    6694.707  99.76
elaps: Routine,Calls,Wall,% = IterSCF        1     837.890  99.76

siesta: E_KS(eV) =           -11446.3827

siesta: E_KS - E_eggbox =    -11446.3827

siesta: Atomic forces (eV/Ang):
----------------------------------------
   Tot    0.212371   -0.221392    0.000000
----------------------------------------
   Max    4.282972
   Res    0.819613    sqrt( Sum f_i^2 / 3N )
----------------------------------------
   Max    4.282972    constrained

Stress-tensor-Voigt (kbar):      -71.93      -73.07       -0.12       -0.43        0.00        0.00
(Free)E + p*V (eV/cell)   -11389.2365
Target enthalpy (eV/cell)   -11446.3924

siesta: Stress tensor (static) (eV/Ang**3):
        -0.044893   -0.000267    0.000000
        -0.000267   -0.045604    0.000000
         0.000000    0.000000   -0.000072

siesta: Pressure (static):         48.36971313  kBar

siesta: Stress tensor (total) (eV/Ang**3):
        -0.044893   -0.000267    0.000000
        -0.000267   -0.045604    0.000000
         0.000000    0.000000   -0.000072

siesta: Pressure (total):         48.36971313  kBar

siesta: Temp_ion =       0.000 K

* Maximum dynamic memory allocated =   217 MB
Computing bands...

siesta: Program's energy decomposition (eV):
siesta: Ebs     =     -3829.032319
siesta: Eions   =     17890.784226
siesta: Ena     =      3884.339895
siesta: Ekin    =      7643.057141
siesta: Enl     =      -748.093996
siesta: DEna    =      -310.815455
siesta: DUscf   =        30.259144
siesta: DUext   =         0.000000
siesta: Exc     =     -4054.345199
siesta: eta*DQ  =         0.000000
siesta: Emadel  =         0.000000
siesta: Emeta   =         0.000000
siesta: Emolmec =         0.000000
siesta: Ekinion =         0.000000
siesta: Eharris =    -11446.382699
siesta: Etot    =    -11446.382697
siesta: FreeEng =    -11446.392369

siesta: Final energy (eV):
siesta:  Band Struct. =   -3829.032319
siesta:       Kinetic =    7643.057141
siesta:       Hartree =   22485.741412
siesta:    Ext. field =       0.000000
siesta:   Exch.-corr. =   -4054.345199
siesta:  Ion-electron =  -51982.185638
siesta:       Ion-ion =   14461.349587
siesta:       Ekinion =       0.000000
siesta:         Total =  -11446.382697

siesta: Atomic forces (eV/Ang):
siesta:      1   -0.018891   -0.102690    0.000000
siesta:      2   -0.003278   -0.205091    0.000000
siesta:      3    0.010029    0.015274    0.000000
siesta:      4    0.016239    0.015858    0.000000
siesta:      5   -0.086654    0.000292    0.000000
siesta:      6    0.003278    0.097910    0.000000
siesta:      7    0.006741   -0.003621    0.000000
siesta:      8    0.079276    0.186457    0.000000
siesta:      9    0.039516    0.572434    0.000000
siesta:     10    0.013673   -0.374645    0.000000
siesta:     11   -0.825171   -0.085297    0.000000
siesta:     12    0.333400    0.031587    0.000000
siesta:     13    0.022148   -0.082298    0.000000
siesta:     14    0.015591    0.021804    0.000000
siesta:     15    0.014255   -0.104303    0.000000
siesta:     16   -0.138877   -0.120886    0.000000
siesta:     17    0.082203   -0.055106    0.000000
siesta:     18   -0.011837   -0.149783    0.000000
siesta:     19    0.130936   -0.095630    0.000000
siesta:     20    0.036761   -0.388440    0.000000
siesta:     21   -0.146791   -0.091763    0.000000
siesta:     22    0.003747   -0.150882    0.000000
siesta:     23   -0.059046   -0.054040    0.000000
siesta:     24    0.146048   -0.123607    0.000000
siesta:     25   -0.006851    0.424967    0.000000
siesta:     26   -0.323459    0.039271    0.000000
siesta:     27    0.838857   -0.085735    0.000000
siesta:     28   -0.579999   -3.655914    0.000000
siesta:     29    0.484824   -0.621624    0.000000
siesta:     30   -0.138919   -4.282972    0.000000
siesta:     31   -0.032046   -0.492566    0.000000
siesta:     32    0.157011   -4.278142    0.000000
siesta:     33   -0.469430   -0.621139    0.000000
siesta:     34    0.568764   -3.659617    0.000000
siesta:     35   -0.040821    0.576612    0.000000
siesta:     36   -3.148989    1.654550    0.000000
siesta:     37   -0.356020    3.708767    0.000000
siesta:     38    0.045444    3.641075    0.000000
siesta:     39    0.353887    3.710397    0.000000
siesta:     40   -0.531646   -0.364123    0.000000
siesta:     41    0.112573    0.504143    0.000000
siesta:     42   -0.005424   -0.757454    0.000000
siesta:     43    0.050625    0.693323    0.000000
siesta:     44   -0.032783   -0.791330    0.000000
siesta:     45   -0.026122    0.701709    0.000000
siesta:     46   -0.119669   -0.245950    0.000000
siesta:     47    0.044003    0.163177    0.000000
siesta:     48   -0.022424   -0.245680    0.000000
siesta:     49    0.039345    0.181582    0.000000
siesta:     50   -0.007774   -0.104768    0.000000
siesta:     51    0.061175    0.029853    0.000000
siesta:     52   -0.032512   -0.104719    0.000000
siesta:     53   -0.032773    0.033769    0.000000
siesta:     54    3.145028    1.656107    0.000000
siesta:     55    0.024683   -0.759410    0.000000
siesta:     56   -0.115593    0.503341    0.000000
siesta:     57    0.007471   -0.237346    0.000000
siesta:     58   -0.054020    0.163742    0.000000
siesta:     59    0.530592   -0.368347    0.000000
siesta:     60   -0.066214    0.192138    0.000000
siesta:     61    0.120312   -0.250274    0.000000
siesta:     62    0.018437    0.099212    0.000000
siesta:     63    0.040592   -0.101076    0.000000
siesta:     64   -0.049368    0.015337    0.000000
siesta:     65    0.100111   -0.001530    0.000000
siesta:     66   -0.000929   -0.015723    0.000000
siesta:     67   -0.049549   -0.075991    0.000000
siesta:     68    0.020281    0.019446    0.000000
siesta:     69    0.076813    0.720355    0.000000
siesta:     70    0.054730    1.488953    0.000000
siesta:     71   -0.055667    1.502086    0.000000
siesta:     72   -0.047476    0.722593    0.000000
siesta: ----------------------------------------
siesta:    Tot    0.212371   -0.221392    0.000000

siesta: Stress tensor (static) (eV/Ang**3):
siesta:    -0.044893   -0.000267    0.000000
siesta:    -0.000267   -0.045604    0.000000
siesta:     0.000000    0.000000   -0.000072

siesta: Cell volume =       1893.226895 Ang**3

siesta: Pressure (static):
siesta:                Solid            Molecule  Units
siesta:           0.00032880          0.00018013  Ry/Bohr**3
siesta:           0.03018967          0.01653886  eV/Ang**3
siesta:          48.36971313         26.49845349  kBar
(Free)E+ p_basis*V_orbitals  =      -11414.390936
(Free)Eharris+ p_basis*V_orbitals  =      -11414.387644

siesta: Electric dipole (a.u.)  =    0.000000    0.000000    0.000000
siesta: Electric dipole (Debye) =    0.000000    0.000000    0.000000

* Maximum dynamic memory allocated : Node    0 =   217 MB
* Maximum dynamic memory allocated : Node    1 =    78 MB
* Maximum dynamic memory allocated : Node    2 =    81 MB
* Maximum dynamic memory allocated : Node    3 =   205 MB
* Maximum dynamic memory allocated : Node    4 =   213 MB
* Maximum dynamic memory allocated : Node    5 =    78 MB
* Maximum dynamic memory allocated : Node    6 =    80 MB
* Maximum dynamic memory allocated : Node    7 =   196 MB

* Maximum memory occured during matrixMtoO                    

timer: CPU execution times:
timer:  Routine       Calls   Time/call    Tot.time        %
timer:  siesta            1    7706.962    7706.962   100.00
timer:  Setup             1       4.096       4.096     0.05
timer:  bands             3     270.610     811.829    10.53
timer:  writewave         1       0.043       0.043     0.00
timer:  KSV_init          1       0.004       0.004     0.00
timer:  IterMD            1    6882.621    6882.621    89.30
timer:  hsparse           1       0.393       0.393     0.01
timer:  overlap           1       5.118       5.118     0.07
timer:  IterSCF           1    6694.707    6694.707    86.87
timer:  kinefsm           2       2.668       5.336     0.07
timer:  nlefsm            2      19.739      39.479     0.51
timer:  DHSCF             2     134.846     269.692     3.50
timer:  DHSCF1            1       0.987       0.987     0.01
timer:  DHSCF2            1      40.784      40.784     0.53
timer:  REORD            18       0.012       0.207     0.00
timer:  POISON            3       2.278       6.834     0.09
timer:  DHSCF3            2      96.256     192.513     2.50
timer:  rhoofd            2      18.580      37.159     0.48
timer:  cellXC            2       3.553       7.107     0.09
timer:  vmat              2      49.435      98.870     1.28
timer:  MolMec            2       0.000       0.001     0.00
timer:  diagon            1    6518.244    6518.244    84.58
timer:  c-eigval        473       6.729    3182.666    41.30
timer:  c-buildHS       473       0.121      57.278     0.74
timer:  cdiag           825       6.860    5659.438    73.43
timer:  cdiag1          825       0.428     353.014     4.58
timer:  cdiag2          825       1.915    1579.511    20.49
timer:  cdiag3          825       3.976    3280.485    42.57
timer:  cdiag4          825       0.179     147.355     1.91
timer:  c-eigvec        352       7.272    2559.650    33.21
timer:  c-buildD        352       4.502    1584.590    20.56
timer:  DHSCF4            1      35.241      35.241     0.46
timer:  dfscf             1      32.755      32.755     0.43
timer:  overfsm           1       0.408       0.408     0.01
timer:  optical           1       7.416       7.416     0.10
  

elaps: ELAPSED times:
elaps:  Routine       Calls   Time/call    Tot.time        %
elaps:  siesta            1     964.556     964.556   100.00
elaps:  Setup             1       0.532       0.532     0.06
elaps:  bands             3      33.878     101.634    10.54
elaps:  writewave         1       0.006       0.006     0.00
elaps:  KSV_init          1       0.001       0.001     0.00
elaps:  IterMD            1     861.384     861.384    89.30
elaps:  hsparse           1       0.049       0.049     0.01
elaps:  overlap           1       0.525       0.525     0.05
elaps:  IterSCF           1     837.890     837.890    86.87
elaps:  kinefsm           2       0.276       0.552     0.06
elaps:  nlefsm            2       2.409       4.817     0.50
elaps:  DHSCF             2      18.630      37.261     3.86
elaps:  DHSCF1            1       0.125       0.125     0.01
elaps:  DHSCF2            1       5.099       5.099     0.53
elaps:  REORD            18       0.001       0.026     0.00
elaps:  POISON            3       0.285       0.855     0.09
elaps:  DHSCF3            2      12.045      24.091     2.50
elaps:  rhoofd            2       4.028       8.055     0.84
elaps:  cellXC            2       0.444       0.888     0.09
elaps:  vmat              2       6.186      12.371     1.28
elaps:  MolMec            2       0.000       0.000     0.00
elaps:  diagon            1     815.761     815.761    84.57
elaps:  c-eigval        473       0.842     398.230    41.29
elaps:  c-buildHS       473       0.016       7.771     0.81
elaps:  cdiag           825       0.847     699.134    72.48
elaps:  cdiag1          825       0.053      44.025     4.56
elaps:  cdiag2          825       0.240     197.631    20.49
elaps:  cdiag3          825       0.498     411.014    42.61
elaps:  cdiag4          825       0.022      18.512     1.92
elaps:  c-eigvec        352       0.888     312.631    32.41
elaps:  c-buildD        352       0.585     206.044    21.36
elaps:  DHSCF4            1       7.923       7.923     0.82
elaps:  dfscf             1       7.449       7.449     0.77
elaps:  overfsm           1       0.051       0.051     0.01
elaps:  optical           1       0.001       0.001     0.00
  
>> End of run:   8-DEC-2015  15:02:14
