Siesta Version:                                        siesta-3.2-pl-3
Architecture  : x86_64-unknown-linux-gnu--unknown
Compiler flags: mpiifort -g -O2 -fPIC -xSSE4.1 -fp-model source -shared-intel 
PARALLEL version

* Running on    8 nodes in parallel
>> Start of run:   6-DEC-2015   1:16:55

                           ***********************       
                           *  WELCOME TO SIESTA  *       
                           ***********************       

reinit: Reading from standard input
************************** Dump of input data file ****************************
#(1) General system descriptors
SystemName            GRP_doping    # Descriptive name of the system
SystemLabel           GRP_doping    # Short name for naming files
%include STRUCT.fdf
%include KPT.fdf
%include BASIS.fdf
#%include TS.fdf # for transiesta calculation
#(4) DFT, Grid, SCF
XC.functional         GGA           # LDA or GGA (default = LDA)
XC.authors            PBE           # CA (Ceperley-Aldr) = PZ
                                    #    (Perdew-Zunger) - LDA - Default
                                    # PW92 (Perdew-Wang-92) - LDA
                                    # PBE (Perdew-Burke-Ernzerhof) - GGA
MeshCutoff            200.000000    Ry      # Default: 50.0 Ry ~ 0.444 Bohr
                                    #         100.0 Ry ~ 0.314 Bohr
MaxSCFIterations      500           # Default: 50
DM.MixingWeight       0.05          # Default: 0.25
DM.NumberPulay        10            # Default: 0
DM.PulayOnFile        F             # SystemLabel.P1, SystemLabel.P2
DM.Tolerance          1.d-4         # Default: 1.d-4
DM.UseSaveDM          .true.        # because of the bug
SCFMustConverge       .true.
NeglNonOverlapInt     F             # Default: F
#(5) Eigenvalue problem: order-N or diagonalization
SolutionMethod        Diagon        # or Transiesta
ElectronicTemperature 300.0 K       # Default: 300.0 K
#(6) Molecular dynamics and relaxations
#MD.TypeOfRun          CG            # Type of dynamics:
#MD.VariableCell       F
#MD.NumCGsteps         0           # 0 for single-point / 100 for gopt
#MD.MaxCGDispl         0.2 Bohr      # Default: 0.2 Bohr
#MD.MaxForceTol        0.02 eV/Ang   # Default: 0.04 eV/Ang
#MD.MaxStressTol       1.0 GPa       # Default: 1.0 GPa
# Geometry Constraints
#%block GeometryConstraints
#	position from 1 to 44
#%endblock GeometryConstraints
************************** End of input data file *****************************

reinit: -----------------------------------------------------------------------
reinit: System Name: GRP_doping
reinit: -----------------------------------------------------------------------
reinit: System Label: GRP_doping                                                  
reinit: -----------------------------------------------------------------------

initatom: Reading input for the pseudopotentials and atomic orbitals ----------
 Species number:            1  Label: N Atomic number:           7
 Species number:            2  Label: C Atomic number:           6
Ground state valence configuration:   2s02  2p03
Reading pseudopotential information in formatted form from N.psf

Valence configuration for pseudopotential generation:
2s( 2.00) rc: 1.48
2p( 3.00) rc: 1.48
3d( 0.00) rc: 1.48
4f( 0.00) rc: 1.48
Ground state valence configuration:   2s02  2p02
Reading pseudopotential information in formatted form from C.psf

Valence configuration for pseudopotential generation:
2s( 2.00) rc: 1.54
2p( 2.00) rc: 1.54
3d( 0.00) rc: 1.54
4f( 0.00) rc: 1.54
For N, standard SIESTA heuristics set lmxkb to 3
 (one more than the basis l, including polarization orbitals).
Use PS.lmax or PS.KBprojectors blocks to override.
For C, standard SIESTA heuristics set lmxkb to 3
 (one more than the basis l, including polarization orbitals).
Use PS.lmax or PS.KBprojectors blocks to override.

<basis_specs>
===============================================================================
N                    Z=   7    Mass=  14.010        Charge= 0.17977+309
Lmxo=1 Lmxkb= 3    BasisType=split      Semic=F
L=0  Nsemic=0  Cnfigmx=2
          n=1  nzeta=2  polorb=0
            splnorm:   0.15000    
               vcte:    0.0000    
               rinn:    0.0000    
                rcs:    0.0000      0.0000    
            lambdas:    1.0000      1.0000    
L=1  Nsemic=0  Cnfigmx=2
          n=1  nzeta=2  polorb=1
            splnorm:   0.15000    
               vcte:    0.0000    
               rinn:    0.0000    
                rcs:    0.0000      0.0000    
            lambdas:    1.0000      1.0000    
-------------------------------------------------------------------------------
L=0  Nkbl=1  erefs: 0.17977+309
L=1  Nkbl=1  erefs: 0.17977+309
L=2  Nkbl=1  erefs: 0.17977+309
L=3  Nkbl=1  erefs: 0.17977+309
===============================================================================
</basis_specs>

atom: Called for N                     (Z =   7)

read_vps: Pseudopotential generation method:
read_vps: ATM3      Troullier-Martins                       
Total valence charge:    5.00000

read_vps: Pseudopotential includes a core correction:
read_vps: Pseudo-core for xc-correction

xc_check: Exchange-correlation functional:
xc_check: GGA Perdew, Burke & Ernzerhof 1996
V l=0 = -2*Zval/r beyond r=  1.4606
V l=1 = -2*Zval/r beyond r=  1.4606
V l=2 = -2*Zval/r beyond r=  1.4606
V l=3 = -2*Zval/r beyond r=  1.4606
All V_l potentials equal beyond r=  1.4606
This should be close to max(r_c) in ps generation
All pots = -2*Zval/r beyond r=  1.4606

VLOCAL1: 99.0% of the norm of Vloc inside     20.347 Ry
VLOCAL1: 99.9% of the norm of Vloc inside     46.372 Ry
atom: Maximum radius for 4*pi*r*r*local-pseudopot. charge    1.76189
atom: Maximum radius for r*vlocal+2*Zval:    1.53550
GHOST: No ghost state for L =  0
GHOST: No ghost state for L =  1
GHOST: No ghost state for L =  2
GHOST: No ghost state for L =  3

KBgen: Kleinman-Bylander projectors: 
   l= 0   rc=  1.634559   el= -1.363963   Ekb=  5.296955   kbcos=  0.335621
   l= 1   rc=  1.614250   el= -0.521451   Ekb= -5.259161   kbcos= -0.433408
   l= 2   rc=  1.718383   el=  0.001991   Ekb= -1.271464   kbcos= -0.007566
   l= 3   rc=  1.761893   el=  0.003093   Ekb= -0.494769   kbcos= -0.001015

KBgen: Total number of  Kleinman-Bylander projectors:   16
atom: -------------------------------------------------------------------------

atom: SANKEY-TYPE ORBITALS:
atom: Selected multiple-zeta basis: split     

SPLIT: Orbitals with angular momentum L= 0

SPLIT: Basis orbitals for state 2s

SPLIT: PAO cut-off radius determined from an
SPLIT: energy shift=  0.007350 Ry

   izeta = 1
                 lambda =    1.000000
                     rc =    4.071465
                 energy =   -1.356470
                kinetic =    1.176977
    potential(screened) =   -2.533447
       potential(ionic) =   -8.057990

   izeta = 2
                 rmatch =    2.905100
              splitnorm =    0.150000
                 energy =   -1.158343
                kinetic =    1.813009
    potential(screened) =   -2.971352
       potential(ionic) =   -8.901931

SPLIT: Orbitals with angular momentum L= 1

SPLIT: Basis orbitals for state 2p

SPLIT: PAO cut-off radius determined from an
SPLIT: energy shift=  0.007350 Ry

   izeta = 1
                 lambda =    1.000000
                     rc =    4.972977
                 energy =   -0.513884
                kinetic =    3.441732
    potential(screened) =   -3.955616
       potential(ionic) =   -9.287901

   izeta = 2
                 rmatch =    3.054066
              splitnorm =    0.150000
                 energy =   -0.318226
                kinetic =    5.125348
    potential(screened) =   -5.443573
       potential(ionic) =  -11.380999

POLgen: Perturbative polarization orbital with L=  2

POLgen: Polarization orbital for state 2p

   izeta = 1
                     rc =    4.972977
                 energy =    1.607437
                kinetic =    3.268125
    potential(screened) =   -1.660688
       potential(ionic) =   -5.973652
atom: Total number of Sankey-type orbitals: 13

atm_pop: Valence configuration (for local Pseudopot. screening):
 2s( 2.00)                                                            
 2p( 3.00)                                                            
Vna: chval, zval:    5.00000   5.00000

Vna:  Cut-off radius for the neutral-atom potential:   4.972977
comcore: Pseudo-core radius Rcore=  1.554824

atom: _________________________________________________________________________

<basis_specs>
===============================================================================
C                    Z=   6    Mass=  12.010        Charge= 0.17977+309
Lmxo=1 Lmxkb= 3    BasisType=split      Semic=F
L=0  Nsemic=0  Cnfigmx=2
          n=1  nzeta=2  polorb=0
            splnorm:   0.15000    
               vcte:    0.0000    
               rinn:    0.0000    
                rcs:    0.0000      0.0000    
            lambdas:    1.0000      1.0000    
L=1  Nsemic=0  Cnfigmx=2
          n=1  nzeta=2  polorb=1
            splnorm:   0.15000    
               vcte:    0.0000    
               rinn:    0.0000    
                rcs:    0.0000      0.0000    
            lambdas:    1.0000      1.0000    
-------------------------------------------------------------------------------
L=0  Nkbl=1  erefs: 0.17977+309
L=1  Nkbl=1  erefs: 0.17977+309
L=2  Nkbl=1  erefs: 0.17977+309
L=3  Nkbl=1  erefs: 0.17977+309
===============================================================================
</basis_specs>

atom: Called for C                     (Z =   6)

read_vps: Pseudopotential generation method:
read_vps: ATM3      Troullier-Martins                       
Total valence charge:    4.00000

read_vps: Pseudopotential includes a core correction:
read_vps: Pseudo-core for xc-correction

xc_check: Exchange-correlation functional:
xc_check: GGA Perdew, Burke & Ernzerhof 1996
V l=0 = -2*Zval/r beyond r=  1.5227
V l=1 = -2*Zval/r beyond r=  1.5227
V l=2 = -2*Zval/r beyond r=  1.5227
V l=3 = -2*Zval/r beyond r=  1.5038
All V_l potentials equal beyond r=  1.5227
This should be close to max(r_c) in ps generation
All pots = -2*Zval/r beyond r=  1.5227

VLOCAL1: 99.0% of the norm of Vloc inside     18.722 Ry
VLOCAL1: 99.9% of the norm of Vloc inside     42.668 Ry
atom: Maximum radius for 4*pi*r*r*local-pseudopot. charge    1.83678
atom: Maximum radius for r*vlocal+2*Zval:    1.58088
GHOST: No ghost state for L =  0
GHOST: No ghost state for L =  1
GHOST: No ghost state for L =  2
GHOST: No ghost state for L =  3

KBgen: Kleinman-Bylander projectors: 
   l= 0   rc=  1.704034   el= -1.009801   Ekb=  5.335044   kbcos=  0.316824
   l= 1   rc=  1.704034   el= -0.388707   Ekb= -3.785862   kbcos= -0.366464
   l= 2   rc=  1.791422   el=  0.001971   Ekb= -0.970471   kbcos= -0.009212
   l= 3   rc=  1.859892   el=  0.003065   Ekb= -0.399525   kbcos= -0.001223

KBgen: Total number of  Kleinman-Bylander projectors:   16
atom: -------------------------------------------------------------------------

atom: SANKEY-TYPE ORBITALS:
atom: Selected multiple-zeta basis: split     

SPLIT: Orbitals with angular momentum L= 0

SPLIT: Basis orbitals for state 2s

SPLIT: PAO cut-off radius determined from an
SPLIT: energy shift=  0.007350 Ry

   izeta = 1
                 lambda =    1.000000
                     rc =    4.632753
                 energy =   -1.002270
                kinetic =    0.855760
    potential(screened) =   -1.858031
       potential(ionic) =   -5.417575

   izeta = 2
                 rmatch =    3.431921
              splitnorm =    0.150000
                 energy =   -0.867111
                kinetic =    1.300804
    potential(screened) =   -2.167915
       potential(ionic) =   -5.962684

SPLIT: Orbitals with angular momentum L= 1

SPLIT: Basis orbitals for state 2p

SPLIT: PAO cut-off radius determined from an
SPLIT: energy shift=  0.007350 Ry

   izeta = 1
                 lambda =    1.000000
                     rc =    5.658549
                 energy =   -0.381140
                kinetic =    2.399701
    potential(screened) =   -2.780841
       potential(ionic) =   -6.206085

   izeta = 2
                 rmatch =    3.653288
              splitnorm =    0.150000
                 energy =   -0.249149
                kinetic =    3.542762
    potential(screened) =   -3.791911
       potential(ionic) =   -7.581078

POLgen: Perturbative polarization orbital with L=  2

POLgen: Polarization orbital for state 2p

   izeta = 1
                     rc =    5.658549
                 energy =    1.109913
                kinetic =    2.304789
    potential(screened) =   -1.194876
       potential(ionic) =   -4.013592
atom: Total number of Sankey-type orbitals: 13

atm_pop: Valence configuration (for local Pseudopot. screening):
 2s( 2.00)                                                            
 2p( 2.00)                                                            
Vna: chval, zval:    4.00000   4.00000

Vna:  Cut-off radius for the neutral-atom potential:   5.658549
comcore: Pseudo-core radius Rcore=  1.791422

atom: _________________________________________________________________________

prinput: Basis input ----------------------------------------------------------

PAO.BasisType split     

%block ChemicalSpeciesLabel
    1    7 N                       # Species index, atomic number, species label
    2    6 C                       # Species index, atomic number, species label
%endblock ChemicalSpeciesLabel

%block PAO.Basis                 # Define Basis set
N                     2                    # Species label, number of l-shells
 n=2   0   2                         # n, l, Nzeta 
   4.071      2.905   
   1.000      1.000   
 n=2   1   2 P   1                   # n, l, Nzeta, Polarization, NzetaPol
   4.973      3.054   
   1.000      1.000   
C                     2                    # Species label, number of l-shells
 n=2   0   2                         # n, l, Nzeta 
   4.633      3.432   
   1.000      1.000   
 n=2   1   2 P   1                   # n, l, Nzeta, Polarization, NzetaPol
   5.659      3.653   
   1.000      1.000   
%endblock PAO.Basis

prinput: ----------------------------------------------------------------------

coor:   Atomic-coordinates input format  =     Cartesian coordinates
coor:                                          (in Angstroms)

siesta: Atomic coordinates (Bohr) and species
siesta:      2.23554   1.32097   0.00000  1        1
siesta:     34.83141  22.82873   0.00000  1        2
siesta:     37.15930  18.79590   0.00000  1        3
siesta:     32.50278  10.73026   0.00000  1        4
siesta:      9.21981   2.66461   0.00000  1        5
siesta:     11.54782   1.32097   0.00000  1        6
siesta:     18.53210   2.66461   0.00000  1        7
siesta:     20.86199   1.32097   0.00000  1        8
siesta:     27.84627   2.66461   0.00000  1        9
siesta:      6.89193   6.69743   0.00000  1       10
siesta:     16.20421   6.69743   0.00000  1       11
siesta:     25.51838   6.69743   0.00000  1       12
siesta:      6.89205   9.38661   0.00000  1       13
siesta:     13.87633  10.73026   0.00000  1       14
siesta:     16.20434   9.38661   0.00000  1       15
siesta:     23.19050  10.73026   0.00000  1       16
siesta:     11.54845  14.76308   0.00000  1       17
siesta:     20.86262  14.76308   0.00000  1       18
siesta:     11.54857  17.45226   0.00000  1       19
siesta:     18.53284  18.79590   0.00000  1       20
siesta:     16.20496  22.82873   0.00000  1       21
siesta:     25.51851   9.38661   0.00000  1       22
siesta:     20.86274  17.45226   0.00000  1       23
siesta:     30.17490  14.76308   0.00000  1       24
siesta:     27.84702  18.79590   0.00000  1       25
siesta:     25.51913  22.82873   0.00000  1       26
siesta:     30.17503  17.45226   0.00000  1       27
siesta:      4.56367   2.66461   0.00000  2       28
siesta:     32.50328  21.48508   0.00000  2       29
siesta:     34.83116  17.45226   0.00000  2       30
siesta:     32.50291  13.41944   0.00000  2       31
siesta:     34.83104  14.76308   0.00000  2       32
siesta:     30.17465   9.38661   0.00000  2       33
siesta:     27.84639   5.35379   0.00000  2       34
siesta:     30.17453   6.69743   0.00000  2       35
siesta:     27.84714  21.48508   0.00000  2       36
siesta:     30.17527  22.82873   0.00000  2       37
siesta:      6.89168   1.32097   0.00000  2       38
siesta:     13.87595   2.66461   0.00000  2       39
siesta:     16.20396   1.32097   0.00000  2       40
siesta:     23.19013   2.66461   0.00000  2       41
siesta:     25.51813   1.32097   0.00000  2       42
siesta:      4.56380   5.35379   0.00000  2       43
siesta:      9.21994   5.35379   0.00000  2       44
siesta:     11.54807   6.69743   0.00000  2       45
siesta:     13.87608   5.35379   0.00000  2       46
siesta:     18.53411   5.35379   0.00000  2       47
siesta:     20.86224   6.69743   0.00000  2       48
siesta:     23.19025   5.35379   0.00000  2       49
siesta:      9.22019  10.73026   0.00000  2       50
siesta:     11.54820   9.38661   0.00000  2       51
siesta:     18.53247  10.73026   0.00000  2       52
siesta:     20.86237   9.38661   0.00000  2       53
siesta:      9.22031  13.41944   0.00000  2       54
siesta:     13.87645  13.41944   0.00000  2       55
siesta:     16.20459  14.76308   0.00000  2       56
siesta:     18.53448  13.41944   0.00000  2       57
siesta:     13.87670  18.79590   0.00000  2       58
siesta:     16.20471  17.45226   0.00000  2       59
siesta:     13.87683  21.48508   0.00000  2       60
siesta:     18.53486  21.48508   0.00000  2       61
siesta:     20.86299  22.82873   0.00000  2       62
siesta:     27.84664  10.73026   0.00000  2       63
siesta:     23.19063  13.41944   0.00000  2       64
siesta:     25.51876  14.76308   0.00000  2       65
siesta:     23.19088  18.79590   0.00000  2       66
siesta:     27.84677  13.41944   0.00000  2       67
siesta:     25.51888  17.45226   0.00000  2       68
siesta:     23.19100  21.48508   0.00000  2       69
siesta:     32.50316  18.79590   0.00000  2       70
siesta:     37.16131  21.48508   0.00000  2       71
siesta:     39.48945  22.82873   0.00000  2       72

siesta: System type = slab      

initatomlists: Number of atoms, orbitals, and projectors:     72   936  1152

siesta: ******************** Simulation parameters ****************************
siesta:
siesta: The following are some of the parameters of the simulation.
siesta: A complete list of the parameters used, including default values,
siesta: can be found in file out.fdf
siesta:
redata: Non-Collinear-spin run           =     F
redata: SpinPolarized (Up/Down) run      =     F
redata: Number of spin components        =     1
redata: Long output                      =     F
redata: Number of Atomic Species         =        2
redata: Charge density info will appear in .RHO file
redata: Write Mulliken Pop.              =     NO
redata: Mesh Cutoff                      =   200.0000  Ry
redata: Net charge of the system         =     0.0000 |e|
redata: Max. number of SCF Iter          =      500
redata: SCF convergence failure will abort job
redata: Performing Pulay mixing using    =    10 iterations
redata: Mix DM in first SCF step ?       =     F
redata: Write Pulay info on disk?        =     F
redata: Discard 1st Pulay DM after  kick =     F
redata: New DM Mixing Weight             =     0.0500
redata: New DM Occupancy tolerance       = 0.000000000001
redata: No kicks to SCF
redata: DM Mixing Weight for Kicks       =     0.5000
redata: DM Tolerance for SCF             =     0.000100
redata: Require Energy convergence for SCF =     F
redata: DM Energy tolerance for SCF      =     0.000100 eV
redata: Require Harris convergence for SCF =     F
redata: DM Harris energy tolerance for SCF =     0.000100 eV
redata: Using Saved Data (generic)   =     F
redata: Use continuation files for DM    =     T
redata: Neglect nonoverlap interactions  =     F
redata: Method of Calculation            =     Diagonalization
redata: Divide and Conquer               =     T
redata: Electronic Temperature           =     0.0019  Ry
redata: Fix the spin of the system       =     F
redata: Dynamics option                  =     Verlet MD run
redata: Initial MD time step             =        1
redata:   Final MD time step             =        1
redata: Length of MD time step           =     1.0000  fs
redata: Initial Temperature of MD run    =     0.0000  K
redata: Perform a MD quench              =     F
redata: ***********************************************************************
Total number of electrons:   315.000000
Total ionic charge:   315.000000

* ProcessorY, Blocksize:    2  24

k-point displ. along   1 input, could be:     0.00    0.50
k-point displ. along   2 input, could be:     0.00    0.50
 Kpoints in:          364 . Kpoints trimmed:          352

siesta: k-grid: Number of k-points =   352
siesta: k-grid: Cutoff (effective) =     5.000 Ang
siesta: k-grid: Supercell and displacements
siesta: k-grid:   26   0   0      0.000
siesta: k-grid:    0  26   0      0.000
siesta: k-grid:    0   0   1      0.000
Naive supercell factors:     2    2    2

superc: Internal auxiliary supercell:     2 x     2 x     2  =       8
superc: Number of atoms, orbitals, and projectors:    576   7488   9216

* Maximum dynamic memory allocated =     6 MB

siesta:                 ==============================
                            Begin MD step =      1
                        ==============================

superc: Internal auxiliary supercell:     2 x     2 x     2  =       8
superc: Number of atoms, orbitals, and projectors:    576   7488   9216

outcell: Unit cell vectors (Ang):
       14.785000    0.000000    0.000000
        7.393000   12.805052    0.000000
        0.000000    0.000000   10.000000

outcell: Cell vector modules (Ang)   :   14.785000   14.786000   10.000000
outcell: Cell angles (23,13,12) (deg):     90.0000     90.0000     60.0000
outcell: Cell volume (Ang**3)        :   1893.2269
New_DM. Step:     1
Initializing Density Matrix...

InitMesh: MESH =   120 x   120 x    90 =     1296000
InitMesh: Mesh cutoff (required, used) =   200.000   223.865 Ry

* Maximum dynamic memory allocated =   175 MB

stepf: Fermi-Dirac step function

siesta: Program's energy decomposition (eV):
siesta: Ebs     =     -4917.275778
siesta: Eions   =     22743.175864
siesta: Ena     =      4241.497033
siesta: Ekin    =      8644.090471
siesta: Enl     =      -528.038922
siesta: DEna    =        -0.000012
siesta: DUscf   =         0.000000
siesta: DUext   =         0.000000
siesta: Exc     =     -4604.499691
siesta: eta*DQ  =         0.000000
siesta: Emadel  =         0.000000
siesta: Emeta   =         0.000000
siesta: Emolmec =         0.000000
siesta: Ekinion =         0.000000
siesta: Eharris =    -14839.892897
siesta: Etot    =    -14990.126984
siesta: FreeEng =    -14990.126984

siesta: iscf   Eharris(eV)      E_KS(eV)   FreeEng(eV)   dDmax  Ef(eV)
siesta:    1   -14839.8929   -14990.1270   -14990.1270  1.8862 -3.6713
timer: Routine,Calls,Time,% = IterSCF        1    7542.270  99.85
elaps: Routine,Calls,Wall,% = IterSCF        1     944.181  99.85
siesta:    2   -14877.6093   -14800.6333   -14800.6648  0.2599 -3.0569
siesta:    3   -14840.7547   -14836.5147   -14836.5576  0.2766 -3.0077
siesta:    4   -14830.2700   -14826.5566   -14826.6082  0.1612 -2.7547
siesta:    5   -14825.2078   -14820.9719   -14821.0235  0.1335 -2.6168
siesta:    6   -14823.1570   -14819.3506   -14819.3925  0.1119 -2.5829
siesta:    7   -14822.1451   -14819.5612   -14819.5940  0.0412 -2.6875
siesta:    8   -14822.1598   -14820.1228   -14820.1552  0.0238 -2.7415
siesta:    9   -14822.1202   -14821.2018   -14821.2346  0.0221 -2.8103
siesta:   10   -14822.0800   -14821.2963   -14821.3286  0.0094 -2.8104
siesta:   11   -14822.0744   -14821.2764   -14821.3080  0.0078 -2.8032
siesta:   12   -14822.0701   -14821.7691   -14821.8008  0.0026 -2.7969
siesta:   13   -14822.0698   -14821.7849   -14821.8167  0.0017 -2.7957
siesta:   14   -14822.0689   -14821.9264   -14821.9583  0.0005 -2.7948
siesta:   15   -14822.0689   -14821.9492   -14821.9809  0.0006 -2.7953
siesta:   16   -14822.0689   -14821.9628   -14821.9946  0.0004 -2.7949
siesta:   17   -14822.0689   -14822.0439   -14822.0756  0.0001 -2.7948
siesta:   18   -14822.0689   -14822.0488   -14822.0805  0.0001 -2.7948
siesta:   19   -14822.0689   -14822.0622   -14822.0939  0.0000 -2.7948

siesta: E_KS(eV) =           -14822.0638

siesta: E_KS - E_eggbox =    -14822.0638

siesta: Atomic forces (eV/Ang):
----------------------------------------
   Tot    0.491623    0.284838    0.000000
----------------------------------------
   Max    1.151067
   Res    0.443989    sqrt( Sum f_i^2 / 3N )
----------------------------------------
   Max    1.151067    constrained

Stress-tensor-Voigt (kbar):       51.97       55.60        0.35       -2.79        0.00        0.00
(Free)E + p*V (eV/cell)   -14864.6038
Target enthalpy (eV/cell)   -14822.0956

siesta: Stress tensor (static) (eV/Ang**3):
         0.032436   -0.001743    0.000000
        -0.001743    0.034705    0.000000
         0.000000    0.000000    0.000217

siesta: Pressure (static):        -35.97376197  kBar

siesta: Stress tensor (total) (eV/Ang**3):
         0.032436   -0.001743    0.000000
        -0.001743    0.034705    0.000000
         0.000000    0.000000    0.000217

siesta: Pressure (total):        -35.97376197  kBar

siesta: Temp_ion =       0.000 K

* Maximum dynamic memory allocated =   190 MB

siesta: Program's energy decomposition (eV):
siesta: Ebs     =     -4668.168492
siesta: Eions   =     22743.175864
siesta: Ena     =      4241.497033
siesta: Ekin    =     10097.720413
siesta: Enl     =     -1592.261971
siesta: DEna    =      -175.750759
siesta: DUscf   =        24.538298
siesta: DUext   =         0.000000
siesta: Exc     =     -4674.630939
siesta: eta*DQ  =         0.000000
siesta: Emadel  =         0.000000
siesta: Emeta   =         0.000000
siesta: Emolmec =         0.000000
siesta: Ekinion =         0.000000
siesta: Eharris =    -14822.068874
siesta: Etot    =    -14822.063788
siesta: FreeEng =    -14822.095559

siesta: Final energy (eV):
siesta:  Band Struct. =   -4668.168492
siesta:       Kinetic =   10097.720413
siesta:       Hartree =   28297.815385
siesta:    Ext. field =       0.000000
siesta:   Exch.-corr. =   -4674.630939
siesta:  Ion-electron =  -66080.248175
siesta:       Ion-ion =   17537.279528
siesta:       Ekinion =       0.000000
siesta:         Total =  -14822.063788

siesta: Atomic forces (eV/Ang):
siesta:      1    0.442674    0.246034    0.000000
siesta:      2   -0.542455   -0.965962    0.000000
siesta:      3   -1.126572    0.027815    0.000000
siesta:      4   -1.137288    0.026704    0.000000
siesta:      5   -1.147276    0.028333    0.000000
siesta:      6    0.466880    0.242902    0.000000
siesta:      7   -1.114196    0.026673    0.000000
siesta:      8    0.429496    0.245882    0.000000
siesta:      9   -1.134728    0.030081    0.000000
siesta:     10   -0.577896   -0.976415    0.000000
siesta:     11   -0.553043   -0.980281    0.000000
siesta:     12   -0.575545   -0.976038    0.000000
siesta:     13    0.452333    0.262706    0.000000
siesta:     14   -1.146799    0.030515    0.000000
siesta:     15    0.467698    0.262066    0.000000
siesta:     16   -1.151067    0.030963    0.000000
siesta:     17   -0.577767   -0.975217    0.000000
siesta:     18   -0.581001   -0.979398    0.000000
siesta:     19    0.451057    0.260244    0.000000
siesta:     20   -1.115362    0.024530    0.000000
siesta:     21   -0.542260   -0.966061    0.000000
siesta:     22    0.462207    0.259885    0.000000
siesta:     23    0.439392    0.262624    0.000000
siesta:     24   -0.577531   -0.975918    0.000000
siesta:     25   -1.147293    0.030812    0.000000
siesta:     26   -0.579954   -0.960500    0.000000
siesta:     27    0.463352    0.260892    0.000000
siesta:     28    0.745010    0.427205    0.000000
siesta:     29   -0.343800    0.134329    0.000000
siesta:     30   -0.045382   -0.391151    0.000000
siesta:     31    0.793664    0.444066    0.000000
siesta:     32    0.186585    0.098965    0.000000
siesta:     33   -0.046590   -0.395570    0.000000
siesta:     34    0.791107    0.442074    0.000000
siesta:     35    0.187993    0.099644    0.000000
siesta:     36    0.791059    0.448075    0.000000
siesta:     37    0.170632    0.126767    0.000000
siesta:     38   -0.045564   -0.414627    0.000000
siesta:     39    0.746657    0.429615    0.000000
siesta:     40   -0.040958   -0.413906    0.000000
siesta:     41    0.743617    0.428046    0.000000
siesta:     42   -0.044413   -0.415713    0.000000
siesta:     43   -0.360325    0.136069    0.000000
siesta:     44    0.789688    0.443021    0.000000
siesta:     45    0.175027    0.105873    0.000000
siesta:     46   -0.343060    0.128887    0.000000
siesta:     47    0.755909    0.448547    0.000000
siesta:     48    0.170776    0.105878    0.000000
siesta:     49   -0.346454    0.128768    0.000000
siesta:     50    0.744198    0.435700    0.000000
siesta:     51   -0.048081   -0.395038    0.000000
siesta:     52    0.780753    0.423837    0.000000
siesta:     53   -0.074821   -0.387103    0.000000
siesta:     54   -0.359303    0.133607    0.000000
siesta:     55    0.794666    0.443117    0.000000
siesta:     56    0.202374    0.097231    0.000000
siesta:     57   -0.382948    0.139821    0.000000
siesta:     58    0.745043    0.435229    0.000000
siesta:     59   -0.044101   -0.393635    0.000000
siesta:     60   -0.327198    0.127399    0.000000
siesta:     61    0.756964    0.451476    0.000000
siesta:     62    0.165032    0.124105    0.000000
siesta:     63    0.746105    0.433521    0.000000
siesta:     64    0.789734    0.443252    0.000000
siesta:     65    0.174622    0.106005    0.000000
siesta:     66    0.742551    0.436240    0.000000
siesta:     67   -0.346505    0.129475    0.000000
siesta:     68   -0.048017   -0.394761    0.000000
siesta:     69   -0.346321    0.130194    0.000000
siesta:     70    0.745598    0.433883    0.000000
siesta:     71    0.752695    0.451049    0.000000
siesta:     72    0.150347    0.131499    0.000000
siesta: ----------------------------------------
siesta:    Tot    0.491623    0.284838    0.000000

siesta: Stress tensor (static) (eV/Ang**3):
siesta:     0.032436   -0.001743    0.000000
siesta:    -0.001743    0.034705    0.000000
siesta:     0.000000    0.000000    0.000217

siesta: Cell volume =       1893.226895 Ang**3

siesta: Pressure (static):
siesta:                Solid            Molecule  Units
siesta:          -0.00024454         -0.00020282  Ry/Bohr**3
siesta:          -0.02245281         -0.01862189  eV/Ang**3
siesta:         -35.97376197        -29.83587606  kBar
(Free)E+ p_basis*V_orbitals  =      -14795.217958
(Free)Eharris+ p_basis*V_orbitals  =      -14795.224665

siesta: Electric dipole (a.u.)  =    0.000000    0.000000    0.000000
siesta: Electric dipole (Debye) =    0.000000    0.000000    0.000000

* Maximum dynamic memory allocated : Node    0 =   190 MB
* Maximum dynamic memory allocated : Node    1 =    71 MB
* Maximum dynamic memory allocated : Node    2 =    72 MB
* Maximum dynamic memory allocated : Node    3 =   180 MB
* Maximum dynamic memory allocated : Node    4 =   189 MB
* Maximum dynamic memory allocated : Node    5 =    70 MB
* Maximum dynamic memory allocated : Node    6 =    72 MB
* Maximum dynamic memory allocated : Node    7 =   175 MB

* Maximum memory occured during matrixMtoO                    

timer: CPU execution times:
timer:  Routine       Calls   Time/call    Tot.time        %
timer:  siesta            1  142220.816  142220.816   100.00
timer:  Setup             1       3.096       3.096     0.00
timer:  bands             1       0.011       0.011     0.00
timer:  writewave         1       0.016       0.016     0.00
timer:  KSV_init          1       0.001       0.001     0.00
timer:  IterMD            1  142209.563  142209.563    99.99
timer:  hsparse           1       0.264       0.264     0.00
timer:  overlap           1       7.672       7.672     0.01
timer:  IterSCF          19    7476.809  142059.380    99.89
timer:  kinefsm           2       3.917       7.834     0.01
timer:  nlefsm            2      17.732      35.464     0.02
timer:  DHSCF            20      80.008    1600.161     1.13
timer:  DHSCF1            1       0.806       0.806     0.00
timer:  DHSCF2            1      33.037      33.037     0.02
timer:  REORD           162       0.014       2.226     0.00
timer:  POISON           21       3.723      78.183     0.05
timer:  DHSCF3           20      76.865    1537.306     1.08
timer:  rhoofd           20      14.099     281.979     0.20
timer:  cellXC           20       3.588      71.766     0.05
timer:  vmat             20      37.461     749.217     0.53
timer:  MolMec            2       0.000       0.000     0.00
timer:  diagon           19    7395.228  140509.330    98.80
timer:  c-eigval       6688       7.224   48314.817    33.97
timer:  c-buildHS      6688       0.205    1372.872     0.97
timer:  cdiag         13376       7.413   99158.335    69.72
timer:  cdiag1        13376       0.469    6274.375     4.41
timer:  cdiag2        13376       1.973   26392.190    18.56
timer:  cdiag3        13376       4.174   55833.636    39.26
timer:  cdiag4        13376       0.247    3301.510     2.32
timer:  c-eigvec       6688       7.894   52797.495    37.12
timer:  c-buildD       6688       5.879   39318.234    27.65
timer:  DHSCF4            1      27.256      27.256     0.02
timer:  dfscf             1      25.494      25.494     0.02
timer:  overfsm           1       0.363       0.363     0.00
timer:  optical           1       7.131       7.131     0.01
  

elaps: ELAPSED times:
elaps:  Routine       Calls   Time/call    Tot.time        %
elaps:  siesta            1   17803.265   17803.265   100.00
elaps:  Setup             1       0.385       0.385     0.00
elaps:  bands             1       0.001       0.001     0.00
elaps:  writewave         1       0.002       0.002     0.00
elaps:  KSV_init          1       0.000       0.000     0.00
elaps:  IterMD            1   17801.860   17801.860    99.99
elaps:  hsparse           1       0.031       0.031     0.00
elaps:  overlap           1       0.964       0.964     0.01
elaps:  IterSCF          19     935.951   17783.069    99.89
elaps:  kinefsm           2       0.492       0.984     0.01
elaps:  nlefsm            2       2.269       4.537     0.03
elaps:  DHSCF            20      10.154     203.089     1.14
elaps:  DHSCF1            1       0.111       0.111     0.00
elaps:  DHSCF2            1       4.121       4.121     0.02
elaps:  REORD           162       0.002       0.281     0.00
elaps:  POISON           21       0.468       9.819     0.06
elaps:  DHSCF3           20       9.617     192.338     1.08
elaps:  rhoofd           20       3.070      61.409     0.34
elaps:  cellXC           20       0.448       8.960     0.05
elaps:  vmat             20       4.686      93.725     0.53
elaps:  MolMec            2       0.000       0.000     0.00
elaps:  diagon           19     925.778   17589.786    98.80
elaps:  c-eigval       6688       0.904    6046.132    33.96
elaps:  c-buildHS      6688       0.027     182.723     1.03
elaps:  cdiag         13376       0.910   12176.801    68.40
elaps:  cdiag1        13376       0.058     772.330     4.34
elaps:  cdiag2        13376       0.247    3302.146    18.55
elaps:  cdiag3        13376       0.523    6997.714    39.31
elaps:  cdiag4        13376       0.034     454.845     2.55
elaps:  c-eigvec       6688       0.957    6399.744    35.95
elaps:  c-buildD       6688       0.767    5132.531    28.83
elaps:  DHSCF4            1       6.278       6.278     0.04
elaps:  dfscf             1       5.903       5.903     0.03
elaps:  overfsm           1       0.046       0.046     0.00
elaps:  optical           1       0.000       0.000     0.00
  
>> End of run:   6-DEC-2015   6:13:38
