Siesta Version:                                        siesta-3.2-pl-3
Architecture  : x86_64-unknown-linux-gnu--unknown
Compiler flags: mpiifort -g -O2 -fPIC -xSSE4.1 -fp-model source -shared-intel 
PARALLEL version

* Running on    8 nodes in parallel
>> Start of run:  28-NOV-2015  23:47:11

                           ***********************       
                           *  WELCOME TO SIESTA  *       
                           ***********************       

reinit: Reading from standard input
************************** Dump of input data file ****************************
#(1) General system descriptors
SystemName            GRP_doping    # Descriptive name of the system
SystemLabel           GRP_doping    # Short name for naming files
%include STRUCT.fdf
%include KPT.fdf
%include BASIS.fdf
#%include TS.fdf # for transiesta calculation
#(4) DFT, Grid, SCF
XC.functional         GGA           # LDA or GGA (default = LDA)
XC.authors            PBE           # CA (Ceperley-Aldr) = PZ
                                    #    (Perdew-Zunger) - LDA - Default
                                    # PW92 (Perdew-Wang-92) - LDA
                                    # PBE (Perdew-Burke-Ernzerhof) - GGA
MeshCutoff            200.000000    Ry      # Default: 50.0 Ry ~ 0.444 Bohr
                                    #         100.0 Ry ~ 0.314 Bohr
MaxSCFIterations      500           # Default: 50
DM.MixingWeight       0.05          # Default: 0.25
DM.NumberPulay        10            # Default: 0
DM.PulayOnFile        F             # SystemLabel.P1, SystemLabel.P2
DM.Tolerance          1.d-4         # Default: 1.d-4
DM.UseSaveDM          .true.        # because of the bug
SCFMustConverge       .true.
NeglNonOverlapInt     F             # Default: F
#(5) Eigenvalue problem: order-N or diagonalization
SolutionMethod        Diagon        # or Transiesta
ElectronicTemperature 300.0 K       # Default: 300.0 K
#(6) Molecular dynamics and relaxations
#MD.TypeOfRun          CG            # Type of dynamics:
#MD.VariableCell       F
#MD.NumCGsteps         0           # 0 for single-point / 100 for gopt
#MD.MaxCGDispl         0.2 Bohr      # Default: 0.2 Bohr
#MD.MaxForceTol        0.02 eV/Ang   # Default: 0.04 eV/Ang
#MD.MaxStressTol       1.0 GPa       # Default: 1.0 GPa
# Geometry Constraints
#%block GeometryConstraints
#	position from 1 to 44
#%endblock GeometryConstraints
************************** End of input data file *****************************

reinit: -----------------------------------------------------------------------
reinit: System Name: GRP_doping
reinit: -----------------------------------------------------------------------
reinit: System Label: GRP_doping                                                  
reinit: -----------------------------------------------------------------------

initatom: Reading input for the pseudopotentials and atomic orbitals ----------
 Species number:            1  Label: N Atomic number:           7
 Species number:            2  Label: C Atomic number:           6
Ground state valence configuration:   2s02  2p03
Reading pseudopotential information in formatted form from N.psf

Valence configuration for pseudopotential generation:
2s( 2.00) rc: 1.48
2p( 3.00) rc: 1.48
3d( 0.00) rc: 1.48
4f( 0.00) rc: 1.48
Ground state valence configuration:   2s02  2p02
Reading pseudopotential information in formatted form from C.psf

Valence configuration for pseudopotential generation:
2s( 2.00) rc: 1.54
2p( 2.00) rc: 1.54
3d( 0.00) rc: 1.54
4f( 0.00) rc: 1.54
For N, standard SIESTA heuristics set lmxkb to 3
 (one more than the basis l, including polarization orbitals).
Use PS.lmax or PS.KBprojectors blocks to override.
For C, standard SIESTA heuristics set lmxkb to 3
 (one more than the basis l, including polarization orbitals).
Use PS.lmax or PS.KBprojectors blocks to override.

<basis_specs>
===============================================================================
N                    Z=   7    Mass=  14.010        Charge= 0.17977+309
Lmxo=1 Lmxkb= 3    BasisType=split      Semic=F
L=0  Nsemic=0  Cnfigmx=2
          n=1  nzeta=2  polorb=0
            splnorm:   0.15000    
               vcte:    0.0000    
               rinn:    0.0000    
                rcs:    0.0000      0.0000    
            lambdas:    1.0000      1.0000    
L=1  Nsemic=0  Cnfigmx=2
          n=1  nzeta=2  polorb=1
            splnorm:   0.15000    
               vcte:    0.0000    
               rinn:    0.0000    
                rcs:    0.0000      0.0000    
            lambdas:    1.0000      1.0000    
-------------------------------------------------------------------------------
L=0  Nkbl=1  erefs: 0.17977+309
L=1  Nkbl=1  erefs: 0.17977+309
L=2  Nkbl=1  erefs: 0.17977+309
L=3  Nkbl=1  erefs: 0.17977+309
===============================================================================
</basis_specs>

atom: Called for N                     (Z =   7)

read_vps: Pseudopotential generation method:
read_vps: ATM3      Troullier-Martins                       
Total valence charge:    5.00000

read_vps: Pseudopotential includes a core correction:
read_vps: Pseudo-core for xc-correction

xc_check: Exchange-correlation functional:
xc_check: GGA Perdew, Burke & Ernzerhof 1996
V l=0 = -2*Zval/r beyond r=  1.4606
V l=1 = -2*Zval/r beyond r=  1.4606
V l=2 = -2*Zval/r beyond r=  1.4606
V l=3 = -2*Zval/r beyond r=  1.4606
All V_l potentials equal beyond r=  1.4606
This should be close to max(r_c) in ps generation
All pots = -2*Zval/r beyond r=  1.4606

VLOCAL1: 99.0% of the norm of Vloc inside     20.347 Ry
VLOCAL1: 99.9% of the norm of Vloc inside     46.372 Ry
atom: Maximum radius for 4*pi*r*r*local-pseudopot. charge    1.76189
atom: Maximum radius for r*vlocal+2*Zval:    1.53550
GHOST: No ghost state for L =  0
GHOST: No ghost state for L =  1
GHOST: No ghost state for L =  2
GHOST: No ghost state for L =  3

KBgen: Kleinman-Bylander projectors: 
   l= 0   rc=  1.634559   el= -1.363963   Ekb=  5.296955   kbcos=  0.335621
   l= 1   rc=  1.614250   el= -0.521451   Ekb= -5.259161   kbcos= -0.433408
   l= 2   rc=  1.718383   el=  0.001991   Ekb= -1.271464   kbcos= -0.007566
   l= 3   rc=  1.761893   el=  0.003093   Ekb= -0.494769   kbcos= -0.001015

KBgen: Total number of  Kleinman-Bylander projectors:   16
atom: -------------------------------------------------------------------------

atom: SANKEY-TYPE ORBITALS:
atom: Selected multiple-zeta basis: split     

SPLIT: Orbitals with angular momentum L= 0

SPLIT: Basis orbitals for state 2s

SPLIT: PAO cut-off radius determined from an
SPLIT: energy shift=  0.007350 Ry

   izeta = 1
                 lambda =    1.000000
                     rc =    4.071465
                 energy =   -1.356470
                kinetic =    1.176977
    potential(screened) =   -2.533447
       potential(ionic) =   -8.057990

   izeta = 2
                 rmatch =    2.905100
              splitnorm =    0.150000
                 energy =   -1.158343
                kinetic =    1.813009
    potential(screened) =   -2.971352
       potential(ionic) =   -8.901931

SPLIT: Orbitals with angular momentum L= 1

SPLIT: Basis orbitals for state 2p

SPLIT: PAO cut-off radius determined from an
SPLIT: energy shift=  0.007350 Ry

   izeta = 1
                 lambda =    1.000000
                     rc =    4.972977
                 energy =   -0.513884
                kinetic =    3.441732
    potential(screened) =   -3.955616
       potential(ionic) =   -9.287901

   izeta = 2
                 rmatch =    3.054066
              splitnorm =    0.150000
                 energy =   -0.318226
                kinetic =    5.125348
    potential(screened) =   -5.443573
       potential(ionic) =  -11.380999

POLgen: Perturbative polarization orbital with L=  2

POLgen: Polarization orbital for state 2p

   izeta = 1
                     rc =    4.972977
                 energy =    1.607437
                kinetic =    3.268125
    potential(screened) =   -1.660688
       potential(ionic) =   -5.973652
atom: Total number of Sankey-type orbitals: 13

atm_pop: Valence configuration (for local Pseudopot. screening):
 2s( 2.00)                                                            
 2p( 3.00)                                                            
Vna: chval, zval:    5.00000   5.00000

Vna:  Cut-off radius for the neutral-atom potential:   4.972977
comcore: Pseudo-core radius Rcore=  1.554824

atom: _________________________________________________________________________

<basis_specs>
===============================================================================
C                    Z=   6    Mass=  12.010        Charge= 0.17977+309
Lmxo=1 Lmxkb= 3    BasisType=split      Semic=F
L=0  Nsemic=0  Cnfigmx=2
          n=1  nzeta=2  polorb=0
            splnorm:   0.15000    
               vcte:    0.0000    
               rinn:    0.0000    
                rcs:    0.0000      0.0000    
            lambdas:    1.0000      1.0000    
L=1  Nsemic=0  Cnfigmx=2
          n=1  nzeta=2  polorb=1
            splnorm:   0.15000    
               vcte:    0.0000    
               rinn:    0.0000    
                rcs:    0.0000      0.0000    
            lambdas:    1.0000      1.0000    
-------------------------------------------------------------------------------
L=0  Nkbl=1  erefs: 0.17977+309
L=1  Nkbl=1  erefs: 0.17977+309
L=2  Nkbl=1  erefs: 0.17977+309
L=3  Nkbl=1  erefs: 0.17977+309
===============================================================================
</basis_specs>

atom: Called for C                     (Z =   6)

read_vps: Pseudopotential generation method:
read_vps: ATM3      Troullier-Martins                       
Total valence charge:    4.00000

read_vps: Pseudopotential includes a core correction:
read_vps: Pseudo-core for xc-correction

xc_check: Exchange-correlation functional:
xc_check: GGA Perdew, Burke & Ernzerhof 1996
V l=0 = -2*Zval/r beyond r=  1.5227
V l=1 = -2*Zval/r beyond r=  1.5227
V l=2 = -2*Zval/r beyond r=  1.5227
V l=3 = -2*Zval/r beyond r=  1.5038
All V_l potentials equal beyond r=  1.5227
This should be close to max(r_c) in ps generation
All pots = -2*Zval/r beyond r=  1.5227

VLOCAL1: 99.0% of the norm of Vloc inside     18.722 Ry
VLOCAL1: 99.9% of the norm of Vloc inside     42.668 Ry
atom: Maximum radius for 4*pi*r*r*local-pseudopot. charge    1.83678
atom: Maximum radius for r*vlocal+2*Zval:    1.58088
GHOST: No ghost state for L =  0
GHOST: No ghost state for L =  1
GHOST: No ghost state for L =  2
GHOST: No ghost state for L =  3

KBgen: Kleinman-Bylander projectors: 
   l= 0   rc=  1.704034   el= -1.009801   Ekb=  5.335044   kbcos=  0.316824
   l= 1   rc=  1.704034   el= -0.388707   Ekb= -3.785862   kbcos= -0.366464
   l= 2   rc=  1.791422   el=  0.001971   Ekb= -0.970471   kbcos= -0.009212
   l= 3   rc=  1.859892   el=  0.003065   Ekb= -0.399525   kbcos= -0.001223

KBgen: Total number of  Kleinman-Bylander projectors:   16
atom: -------------------------------------------------------------------------

atom: SANKEY-TYPE ORBITALS:
atom: Selected multiple-zeta basis: split     

SPLIT: Orbitals with angular momentum L= 0

SPLIT: Basis orbitals for state 2s

SPLIT: PAO cut-off radius determined from an
SPLIT: energy shift=  0.007350 Ry

   izeta = 1
                 lambda =    1.000000
                     rc =    4.632753
                 energy =   -1.002270
                kinetic =    0.855760
    potential(screened) =   -1.858031
       potential(ionic) =   -5.417575

   izeta = 2
                 rmatch =    3.431921
              splitnorm =    0.150000
                 energy =   -0.867111
                kinetic =    1.300804
    potential(screened) =   -2.167915
       potential(ionic) =   -5.962684

SPLIT: Orbitals with angular momentum L= 1

SPLIT: Basis orbitals for state 2p

SPLIT: PAO cut-off radius determined from an
SPLIT: energy shift=  0.007350 Ry

   izeta = 1
                 lambda =    1.000000
                     rc =    5.658549
                 energy =   -0.381140
                kinetic =    2.399701
    potential(screened) =   -2.780841
       potential(ionic) =   -6.206085

   izeta = 2
                 rmatch =    3.653288
              splitnorm =    0.150000
                 energy =   -0.249149
                kinetic =    3.542762
    potential(screened) =   -3.791911
       potential(ionic) =   -7.581078

POLgen: Perturbative polarization orbital with L=  2

POLgen: Polarization orbital for state 2p

   izeta = 1
                     rc =    5.658549
                 energy =    1.109913
                kinetic =    2.304789
    potential(screened) =   -1.194876
       potential(ionic) =   -4.013592
atom: Total number of Sankey-type orbitals: 13

atm_pop: Valence configuration (for local Pseudopot. screening):
 2s( 2.00)                                                            
 2p( 2.00)                                                            
Vna: chval, zval:    4.00000   4.00000

Vna:  Cut-off radius for the neutral-atom potential:   5.658549
comcore: Pseudo-core radius Rcore=  1.791422

atom: _________________________________________________________________________

prinput: Basis input ----------------------------------------------------------

PAO.BasisType split     

%block ChemicalSpeciesLabel
    1    7 N                       # Species index, atomic number, species label
    2    6 C                       # Species index, atomic number, species label
%endblock ChemicalSpeciesLabel

%block PAO.Basis                 # Define Basis set
N                     2                    # Species label, number of l-shells
 n=2   0   2                         # n, l, Nzeta 
   4.071      2.905   
   1.000      1.000   
 n=2   1   2 P   1                   # n, l, Nzeta, Polarization, NzetaPol
   4.973      3.054   
   1.000      1.000   
C                     2                    # Species label, number of l-shells
 n=2   0   2                         # n, l, Nzeta 
   4.633      3.432   
   1.000      1.000   
 n=2   1   2 P   1                   # n, l, Nzeta, Polarization, NzetaPol
   5.659      3.653   
   1.000      1.000   
%endblock PAO.Basis

prinput: ----------------------------------------------------------------------

coor:   Atomic-coordinates input format  =     Cartesian coordinates
coor:                                          (in Angstroms)

siesta: Atomic coordinates (Bohr) and species
siesta:      2.23554   1.32097   0.00000  1        1
siesta:     34.83141  22.82873   0.00000  1        2
siesta:     11.54782   1.32097   0.00000  1        3
siesta:     20.86199   1.32097   0.00000  1        4
siesta:      6.89205   9.38661   0.00000  1        5
siesta:     16.20434   9.38661   0.00000  1        6
siesta:     11.54857  17.45226   0.00000  1        7
siesta:     25.51851   9.38661   0.00000  1        8
siesta:     20.86274  17.45226   0.00000  1        9
siesta:      4.56367   2.66461   0.00000  2       10
siesta:     32.50328  21.48508   0.00000  2       11
siesta:     34.83116  17.45226   0.00000  2       12
siesta:     37.15930  18.79590   0.00000  2       13
siesta:     32.50291  13.41944   0.00000  2       14
siesta:     34.83104  14.76308   0.00000  2       15
siesta:     30.17465   9.38661   0.00000  2       16
siesta:     32.50278  10.73026   0.00000  2       17
siesta:     27.84639   5.35379   0.00000  2       18
siesta:     30.17453   6.69743   0.00000  2       19
siesta:     27.84714  21.48508   0.00000  2       20
siesta:     30.17527  22.82873   0.00000  2       21
siesta:      6.89168   1.32097   0.00000  2       22
siesta:      9.21981   2.66461   0.00000  2       23
siesta:     13.87595   2.66461   0.00000  2       24
siesta:     16.20396   1.32097   0.00000  2       25
siesta:     18.53210   2.66461   0.00000  2       26
siesta:     23.19013   2.66461   0.00000  2       27
siesta:     25.51813   1.32097   0.00000  2       28
siesta:     27.84627   2.66461   0.00000  2       29
siesta:      4.56380   5.35379   0.00000  2       30
siesta:      6.89193   6.69743   0.00000  2       31
siesta:      9.21994   5.35379   0.00000  2       32
siesta:     11.54807   6.69743   0.00000  2       33
siesta:     13.87608   5.35379   0.00000  2       34
siesta:     16.20421   6.69743   0.00000  2       35
siesta:     18.53411   5.35379   0.00000  2       36
siesta:     20.86224   6.69743   0.00000  2       37
siesta:     23.19025   5.35379   0.00000  2       38
siesta:     25.51838   6.69743   0.00000  2       39
siesta:      9.22019  10.73026   0.00000  2       40
siesta:     11.54820   9.38661   0.00000  2       41
siesta:     13.87633  10.73026   0.00000  2       42
siesta:     18.53247  10.73026   0.00000  2       43
siesta:     20.86237   9.38661   0.00000  2       44
siesta:     23.19050  10.73026   0.00000  2       45
siesta:      9.22031  13.41944   0.00000  2       46
siesta:     11.54845  14.76308   0.00000  2       47
siesta:     13.87645  13.41944   0.00000  2       48
siesta:     16.20459  14.76308   0.00000  2       49
siesta:     18.53448  13.41944   0.00000  2       50
siesta:     20.86262  14.76308   0.00000  2       51
siesta:     13.87670  18.79590   0.00000  2       52
siesta:     16.20471  17.45226   0.00000  2       53
siesta:     18.53284  18.79590   0.00000  2       54
siesta:     13.87683  21.48508   0.00000  2       55
siesta:     16.20496  22.82873   0.00000  2       56
siesta:     18.53486  21.48508   0.00000  2       57
siesta:     20.86299  22.82873   0.00000  2       58
siesta:     27.84664  10.73026   0.00000  2       59
siesta:     23.19063  13.41944   0.00000  2       60
siesta:     25.51876  14.76308   0.00000  2       61
siesta:     23.19088  18.79590   0.00000  2       62
siesta:     27.84677  13.41944   0.00000  2       63
siesta:     30.17490  14.76308   0.00000  2       64
siesta:     25.51888  17.45226   0.00000  2       65
siesta:     27.84702  18.79590   0.00000  2       66
siesta:     23.19100  21.48508   0.00000  2       67
siesta:     25.51913  22.82873   0.00000  2       68
siesta:     30.17503  17.45226   0.00000  2       69
siesta:     32.50316  18.79590   0.00000  2       70
siesta:     37.16131  21.48508   0.00000  2       71
siesta:     39.48945  22.82873   0.00000  2       72

siesta: System type = slab      

initatomlists: Number of atoms, orbitals, and projectors:     72   936  1152

siesta: ******************** Simulation parameters ****************************
siesta:
siesta: The following are some of the parameters of the simulation.
siesta: A complete list of the parameters used, including default values,
siesta: can be found in file out.fdf
siesta:
redata: Non-Collinear-spin run           =     F
redata: SpinPolarized (Up/Down) run      =     F
redata: Number of spin components        =     1
redata: Long output                      =     F
redata: Number of Atomic Species         =        2
redata: Charge density info will appear in .RHO file
redata: Write Mulliken Pop.              =     NO
redata: Mesh Cutoff                      =   200.0000  Ry
redata: Net charge of the system         =     0.0000 |e|
redata: Max. number of SCF Iter          =      500
redata: SCF convergence failure will abort job
redata: Performing Pulay mixing using    =    10 iterations
redata: Mix DM in first SCF step ?       =     F
redata: Write Pulay info on disk?        =     F
redata: Discard 1st Pulay DM after  kick =     F
redata: New DM Mixing Weight             =     0.0500
redata: New DM Occupancy tolerance       = 0.000000000001
redata: No kicks to SCF
redata: DM Mixing Weight for Kicks       =     0.5000
redata: DM Tolerance for SCF             =     0.000100
redata: Require Energy convergence for SCF =     F
redata: DM Energy tolerance for SCF      =     0.000100 eV
redata: Require Harris convergence for SCF =     F
redata: DM Harris energy tolerance for SCF =     0.000100 eV
redata: Using Saved Data (generic)   =     F
redata: Use continuation files for DM    =     T
redata: Neglect nonoverlap interactions  =     F
redata: Method of Calculation            =     Diagonalization
redata: Divide and Conquer               =     T
redata: Electronic Temperature           =     0.0019  Ry
redata: Fix the spin of the system       =     F
redata: Dynamics option                  =     Verlet MD run
redata: Initial MD time step             =        1
redata:   Final MD time step             =        1
redata: Length of MD time step           =     1.0000  fs
redata: Initial Temperature of MD run    =     0.0000  K
redata: Perform a MD quench              =     F
redata: ***********************************************************************
Total number of electrons:   297.000000
Total ionic charge:   297.000000

* ProcessorY, Blocksize:    2  24

k-point displ. along   1 input, could be:     0.00    0.50
k-point displ. along   2 input, could be:     0.00    0.50
 Kpoints in:          364 . Kpoints trimmed:          352

siesta: k-grid: Number of k-points =   352
siesta: k-grid: Cutoff (effective) =     5.000 Ang
siesta: k-grid: Supercell and displacements
siesta: k-grid:   26   0   0      0.000
siesta: k-grid:    0  26   0      0.000
siesta: k-grid:    0   0   1      0.000
Naive supercell factors:     2    2    2

superc: Internal auxiliary supercell:     2 x     2 x     2  =       8
superc: Number of atoms, orbitals, and projectors:    576   7488   9216

* Maximum dynamic memory allocated =     6 MB

siesta:                 ==============================
                            Begin MD step =      1
                        ==============================

superc: Internal auxiliary supercell:     2 x     2 x     2  =       8
superc: Number of atoms, orbitals, and projectors:    576   7488   9216

outcell: Unit cell vectors (Ang):
       14.785000    0.000000    0.000000
        7.393000   12.805052    0.000000
        0.000000    0.000000   10.000000

outcell: Cell vector modules (Ang)   :   14.785000   14.786000   10.000000
outcell: Cell angles (23,13,12) (deg):     90.0000     90.0000     60.0000
outcell: Cell volume (Ang**3)        :   1893.2269
New_DM. Step:     1
Initializing Density Matrix...

iodm: Reading Density Matrix from files
 Read DM has different structure. Fixing...

InitMesh: MESH =   120 x   120 x    90 =     1296000
InitMesh: Mesh cutoff (required, used) =   200.000   223.865 Ry

* Maximum dynamic memory allocated =   187 MB

stepf: Fermi-Dirac step function

siesta: Program's energy decomposition (eV):
siesta: Ebs     =     -4407.785322
siesta: Eions   =     19849.732669
siesta: Ena     =      4064.294493
siesta: Ekin    =      8471.347281
siesta: Enl     =      -988.125464
siesta: DEna    =      -306.174710
siesta: DUscf   =       182.924729
siesta: DUext   =         0.000000
siesta: Exc     =     -4275.265951
siesta: eta*DQ  =         0.000000
siesta: Emadel  =         0.000000
siesta: Emeta   =         0.000000
siesta: Emolmec =         0.000000
siesta: Ekinion =         0.000000
siesta: Eharris =    -13233.644642
siesta: Etot    =    -12700.732291
siesta: FreeEng =    -12700.732291

siesta: iscf   Eharris(eV)      E_KS(eV)   FreeEng(eV)   dDmax  Ef(eV)
siesta:    1   -13233.6446   -12700.7323   -12700.7323  3.0142 -2.6884
timer: Routine,Calls,Time,% = IterSCF        1    6597.952  99.82
elaps: Routine,Calls,Wall,% = IterSCF        1     825.710  99.82
siesta:    2   -29641.0124    -9639.6626    -9639.6986136.9575-22.7474
siesta:    3   -12970.6023   -12718.0183   -12718.0567  0.8553 -3.0074
siesta:    4   -12901.6846   -12728.0396   -12728.0791  0.6978 -3.0388
siesta:    5   -12791.0758   -12741.2694   -12741.3037  0.6399 -3.0095
siesta:    6   -12762.1396   -12743.0053   -12743.0280  0.6508 -3.0240
siesta:    7   -12742.7770   -12739.3751   -12739.4204  0.4196 -3.0406
siesta:    8   -12740.9861   -12738.1039   -12738.1482  0.4212 -3.1189
siesta:    9   -12741.3245   -12736.6425   -12736.6807  0.3356 -3.3092
siesta:   10   -12741.4099   -12736.2797   -12736.3129  0.1210 -3.5065
siesta:   11   -12739.9079   -12736.6670   -12736.7090  0.0781 -3.5686
siesta:   12   -12739.1486   -12737.0085   -12737.0553  0.1177 -3.5602
siesta:   13   -12739.0637   -12737.2387   -12737.2886  0.0931 -3.5419
siesta:   14   -12739.0183   -12737.5670   -12737.6166  0.0672 -3.4962
siesta:   15   -12738.9963   -12737.9717   -12738.0207  0.0318 -3.4629
siesta:   16   -12738.9825   -12738.2778   -12738.3266  0.0222 -3.4514
siesta:   17   -12738.9538   -12738.4465   -12738.4963  0.0103 -3.4356
siesta:   18   -12738.9500   -12738.4807   -12738.5307  0.0112 -3.4312
siesta:   19   -12738.9475   -12738.6291   -12738.6789  0.0042 -3.4308
siesta:   20   -12738.9471   -12738.7147   -12738.7643  0.0030 -3.4307
siesta:   21   -12738.9470   -12738.8110   -12738.8606  0.0017 -3.4313
siesta:   22   -12738.9471   -12738.8517   -12738.9013  0.0016 -3.4326
siesta:   23   -12738.9469   -12738.8745   -12738.9242  0.0013 -3.4334
siesta:   24   -12738.9467   -12738.9327   -12738.9823  0.0005 -3.4337
siesta:   25   -12738.9467   -12738.9376   -12738.9873  0.0003 -3.4339
siesta:   26   -12738.9467   -12738.9398   -12738.9895  0.0003 -3.4340
siesta:   27   -12738.9467   -12738.9431   -12738.9927  0.0002 -3.4339
siesta:   28   -12738.9467   -12738.9441   -12738.9937  0.0002 -3.4338
siesta:   29   -12738.9467   -12738.9450   -12738.9946  0.0002 -3.4338
siesta:   30   -12738.9467   -12738.9460   -12738.9957  0.0001 -3.4337
siesta:   31   -12738.9467   -12738.9456   -12738.9953  0.0001 -3.4337

siesta: E_KS(eV) =           -12738.9457

siesta: E_KS - E_eggbox =    -12738.9457

siesta: Atomic forces (eV/Ang):
----------------------------------------
   Tot    0.210805   -0.291864    0.000000
----------------------------------------
   Max    1.015076
   Res    0.281515    sqrt( Sum f_i^2 / 3N )
----------------------------------------
   Max    1.015076    constrained

Stress-tensor-Voigt (kbar):        0.28       -0.52        0.14       -0.26        0.00        0.00
(Free)E + p*V (eV/cell)   -12738.9560
Target enthalpy (eV/cell)   -12738.9953

siesta: Stress tensor (static) (eV/Ang**3):
         0.000172   -0.000163    0.000000
        -0.000163   -0.000324    0.000000
         0.000000    0.000000    0.000090

siesta: Pressure (static):          0.03326147  kBar

siesta: Stress tensor (total) (eV/Ang**3):
         0.000172   -0.000163    0.000000
        -0.000163   -0.000324    0.000000
         0.000000    0.000000    0.000090

siesta: Pressure (total):          0.03326147  kBar

siesta: Temp_ion =       0.000 K

* Maximum dynamic memory allocated =   203 MB

siesta: Program's energy decomposition (eV):
siesta: Ebs     =     -4185.304540
siesta: Eions   =     19849.732669
siesta: Ena     =      4064.294493
siesta: Ekin    =      8580.153661
siesta: Enl     =     -1058.452902
siesta: DEna    =      -247.580695
siesta: DUscf   =        22.681532
siesta: DUext   =         0.000000
siesta: Exc     =     -4250.309116
siesta: eta*DQ  =         0.000000
siesta: Emadel  =         0.000000
siesta: Emeta   =         0.000000
siesta: Emolmec =         0.000000
siesta: Ekinion =         0.000000
siesta: Eharris =    -12738.946655
siesta: Etot    =    -12738.945696
siesta: FreeEng =    -12738.995343

siesta: Final energy (eV):
siesta:  Band Struct. =   -4185.304540
siesta:       Kinetic =    8580.153661
siesta:       Hartree =   24802.135190
siesta:    Ext. field =       0.000000
siesta:   Exch.-corr. =   -4250.309116
siesta:  Ion-electron =  -57581.036230
siesta:       Ion-ion =   15710.110799
siesta:       Ekinion =       0.000000
siesta:         Total =  -12738.945696

siesta: Atomic forces (eV/Ang):
siesta:      1    0.018251    0.325191    0.000000
siesta:      2    0.032770   -0.968736    0.000000
siesta:      3    0.005176    0.202133    0.000000
siesta:      4    0.017259    0.895034    0.000000
siesta:      5   -0.016332   -0.060686    0.000000
siesta:      6    0.000986   -0.038961    0.000000
siesta:      7   -0.009705    0.101187    0.000000
siesta:      8    0.076651   -0.016959    0.000000
siesta:      9    0.020603    0.037808    0.000000
siesta:     10   -0.357220   -0.243876    0.000000
siesta:     11   -0.308253    1.015076    0.000000
siesta:     12    0.442016   -0.836203    0.000000
siesta:     13    0.300941    0.152726    0.000000
siesta:     14    0.532296   -0.310658    0.000000
siesta:     15   -0.437838    0.634815    0.000000
siesta:     16   -0.004296   -0.233670    0.000000
siesta:     17    0.515331   -0.153150    0.000000
siesta:     18    0.418014    0.314551    0.000000
siesta:     19   -0.075370   -0.170629    0.000000
siesta:     20    0.014337    0.500991    0.000000
siesta:     21    0.895748   -0.968906    0.000000
siesta:     22    0.040677   -0.246088    0.000000
siesta:     23    0.254027   -0.124674    0.000000
siesta:     24   -0.090698   -0.611217    0.000000
siesta:     25   -0.001415    0.741653    0.000000
siesta:     26   -0.175340   -0.831018    0.000000
siesta:     27    0.077503   -0.564012    0.000000
siesta:     28    0.024411    0.188952    0.000000
siesta:     29    0.229997   -0.428871    0.000000
siesta:     30   -0.267061    0.191766    0.000000
siesta:     31    0.026244    0.320920    0.000000
siesta:     32    0.261854    0.127261    0.000000
siesta:     33    0.032061   -0.039557    0.000000
siesta:     34   -0.240268    0.423694    0.000000
siesta:     35   -0.016347    0.020944    0.000000
siesta:     36    0.265205    0.213495    0.000000
siesta:     37   -0.008082    0.158274    0.000000
siesta:     38   -0.339434    0.036115    0.000000
siesta:     39   -0.039071    0.253845    0.000000
siesta:     40   -0.485843    0.073466    0.000000
siesta:     41    0.218755   -0.352230    0.000000
siesta:     42    0.047381   -0.108444    0.000000
siesta:     43   -0.035611   -0.008726    0.000000
siesta:     44   -0.201849   -0.478188    0.000000
siesta:     45    0.441275    0.062892    0.000000
siesta:     46    0.195530   -0.155253    0.000000
siesta:     47   -0.280791    0.358237    0.000000
siesta:     48    0.399260    0.075027    0.000000
siesta:     49    0.053907   -0.052424    0.000000
siesta:     50   -0.465103    0.009627    0.000000
siesta:     51    0.229127    0.423069    0.000000
siesta:     52   -0.124170   -0.135393    0.000000
siesta:     53   -0.073636   -0.306822    0.000000
siesta:     54    0.357813   -0.158352    0.000000
siesta:     55   -0.204727    0.010943    0.000000
siesta:     56   -0.096606    0.140850    0.000000
siesta:     57    0.315683    0.201915    0.000000
siesta:     58   -0.076561   -0.119568    0.000000
siesta:     59   -0.501108   -0.300946    0.000000
siesta:     60   -0.056342   -0.083643    0.000000
siesta:     61    0.415937    0.252920    0.000000
siesta:     62   -0.514980   -0.296090    0.000000
siesta:     63   -0.575834   -0.140082    0.000000
siesta:     64    0.027693   -0.212319    0.000000
siesta:     65   -0.427909   -0.447062    0.000000
siesta:     66   -0.184192    0.083323    0.000000
siesta:     67   -0.258928    0.140598    0.000000
siesta:     68    0.213821    0.333363    0.000000
siesta:     69   -0.144777    0.145934    0.000000
siesta:     70    0.439881    0.556462    0.000000
siesta:     71    0.273516    0.531919    0.000000
siesta:     72   -0.825437   -0.345428    0.000000
siesta: ----------------------------------------
siesta:    Tot    0.210805   -0.291864    0.000000

siesta: Stress tensor (static) (eV/Ang**3):
siesta:     0.000172   -0.000163    0.000000
siesta:    -0.000163   -0.000324    0.000000
siesta:     0.000000    0.000000    0.000090

siesta: Cell volume =       1893.226895 Ang**3

siesta: Pressure (static):
siesta:                Solid            Molecule  Units
siesta:           0.00000023         -0.00001351  Ry/Bohr**3
siesta:           0.00002076         -0.00124025  eV/Ang**3
siesta:           0.03326147         -1.98712390  kBar
(Free)E+ p_basis*V_orbitals  =      -12709.544397
(Free)Eharris+ p_basis*V_orbitals  =      -12709.545430

siesta: Electric dipole (a.u.)  =    0.000000    0.000000    0.000000
siesta: Electric dipole (Debye) =    0.000000    0.000000    0.000000

* Maximum dynamic memory allocated : Node    0 =   203 MB
* Maximum dynamic memory allocated : Node    1 =    74 MB
* Maximum dynamic memory allocated : Node    2 =    76 MB
* Maximum dynamic memory allocated : Node    3 =   193 MB
* Maximum dynamic memory allocated : Node    4 =   203 MB
* Maximum dynamic memory allocated : Node    5 =    74 MB
* Maximum dynamic memory allocated : Node    6 =    76 MB
* Maximum dynamic memory allocated : Node    7 =   187 MB

* Maximum memory occured during matrixMtoO                    

timer: CPU execution times:
timer:  Routine       Calls   Time/call    Tot.time        %
timer:  siesta            1  202761.681  202761.681   100.00
timer:  Setup             1       3.043       3.043     0.00
timer:  bands             1       0.009       0.009     0.00
timer:  writewave         1       0.016       0.016     0.00
timer:  KSV_init          1       0.002       0.002     0.00
timer:  IterMD            1  202750.541  202750.541    99.99
timer:  hsparse           1       0.254       0.254     0.00
timer:  overlap           1       6.344       6.344     0.00
timer:  IterSCF          31    6535.062  202586.928    99.91
timer:  kinefsm           2       3.267       6.534     0.00
timer:  nlefsm            2      18.929      37.857     0.02
timer:  DHSCF            32      88.422    2829.510     1.40
timer:  DHSCF1            1       0.761       0.761     0.00
timer:  DHSCF2            1      32.886      32.886     0.02
timer:  REORD           258       0.010       2.614     0.00
timer:  POISON           33       2.242      73.971     0.04
timer:  DHSCF3           32      86.359    2763.484     1.36
timer:  rhoofd           32      16.276     520.823     0.26
timer:  cellXC           32       3.547     113.500     0.06
timer:  vmat             32      43.165    1381.271     0.68
timer:  MolMec            2       0.000       0.000     0.00
timer:  diagon           31    6445.269  199803.348    98.54
timer:  c-eigval      10912       6.680   72893.328    35.95
timer:  c-buildHS     10912       0.117    1280.919     0.63
timer:  cdiag         21824       6.853  149555.317    73.76
timer:  cdiag1        21824       0.427    9327.448     4.60
timer:  cdiag2        21824       1.906   41587.378    20.51
timer:  cdiag3        21824       3.953   86273.488    42.55
timer:  cdiag4        21824       0.204    4448.190     2.19
timer:  c-eigvec      10912       7.215   78729.597    38.83
timer:  c-buildD      10912       4.407   48086.461    23.72
timer:  DHSCF4            1      30.684      30.684     0.02
timer:  dfscf             1      28.859      28.859     0.01
timer:  overfsm           1       0.373       0.373     0.00
timer:  optical           1       7.086       7.086     0.00
  

elaps: ELAPSED times:
elaps:  Routine       Calls   Time/call    Tot.time        %
elaps:  siesta            1   25373.829   25373.829   100.00
elaps:  Setup             1       0.379       0.379     0.00
elaps:  bands             1       0.001       0.001     0.00
elaps:  writewave         1       0.002       0.002     0.00
elaps:  KSV_init          1       0.000       0.000     0.00
elaps:  IterMD            1   25372.436   25372.436    99.99
elaps:  hsparse           1       0.031       0.031     0.00
elaps:  overlap           1       0.968       0.968     0.00
elaps:  IterSCF          31     817.805   25351.970    99.91
elaps:  kinefsm           2       0.497       0.994     0.00
elaps:  nlefsm            2       2.357       4.714     0.02
elaps:  DHSCF            32      11.163     357.208     1.41
elaps:  DHSCF1            1       0.098       0.098     0.00
elaps:  DHSCF2            1       4.112       4.112     0.02
elaps:  REORD           258       0.001       0.334     0.00
elaps:  POISON           33       0.281       9.279     0.04
elaps:  DHSCF3           32      10.804     345.716     1.36
elaps:  rhoofd           32       3.510     112.325     0.44
elaps:  cellXC           32       0.443      14.176     0.06
elaps:  vmat             32       5.399     172.781     0.68
elaps:  MolMec            2       0.000       0.000     0.00
elaps:  diagon           31     806.593   25004.371    98.54
elaps:  c-eigval      10912       0.836    9120.106    35.94
elaps:  c-buildHS     10912       0.016     174.269     0.69
elaps:  cdiag         21824       0.845   18451.842    72.72
elaps:  cdiag1        21824       0.053    1167.027     4.60
elaps:  cdiag2        21824       0.238    5203.522    20.51
elaps:  cdiag3        21824       0.495   10808.976    42.60
elaps:  cdiag4        21824       0.026     561.096     2.21
elaps:  c-eigvec      10912       0.882    9629.691    37.95
elaps:  c-buildD      10912       0.572    6240.957    24.60
elaps:  DHSCF4            1       7.052       7.052     0.03
elaps:  dfscf             1       6.675       6.675     0.03
elaps:  overfsm           1       0.048       0.048     0.00
elaps:  optical           1       0.000       0.000     0.00
  
>> End of run:  29-NOV-2015   6:50:05
