Siesta Version:                                        siesta-3.2-pl-3
Architecture  : x86_64-unknown-linux-gnu--unknown
Compiler flags: mpiifort -g -O2 -fPIC -xSSE4.1 -fp-model source -shared-intel 
PARALLEL version

* Running on    8 nodes in parallel
>> Start of run:  25-NOV-2015  22:35:48

                           ***********************       
                           *  WELCOME TO SIESTA  *       
                           ***********************       

reinit: Reading from standard input
************************** Dump of input data file ****************************
#(1) General system descriptors
SystemName            GRP_doping    # Descriptive name of the system
SystemLabel           GRP_doping    # Short name for naming files
%include STRUCT.fdf
%include KPT.fdf
%include BASIS.fdf
#%include TS.fdf # for transiesta calculation
#(4) DFT, Grid, SCF
XC.functional         GGA           # LDA or GGA (default = LDA)
XC.authors            PBE           # CA (Ceperley-Aldr) = PZ
                                    #    (Perdew-Zunger) - LDA - Default
                                    # PW92 (Perdew-Wang-92) - LDA
                                    # PBE (Perdew-Burke-Ernzerhof) - GGA
MeshCutoff            200.000000    Ry      # Default: 50.0 Ry ~ 0.444 Bohr
                                    #         100.0 Ry ~ 0.314 Bohr
MaxSCFIterations      500           # Default: 50
DM.MixingWeight       0.05          # Default: 0.25
DM.NumberPulay        10            # Default: 0
DM.PulayOnFile        F             # SystemLabel.P1, SystemLabel.P2
DM.Tolerance          1.d-4         # Default: 1.d-4
DM.UseSaveDM          .true.        # because of the bug
SCFMustConverge       .true.
NeglNonOverlapInt     F             # Default: F
#(5) Eigenvalue problem: order-N or diagonalization
SolutionMethod        Diagon        # or Transiesta
ElectronicTemperature 300.0 K       # Default: 300.0 K
#(6) Molecular dynamics and relaxations
#MD.TypeOfRun          CG            # Type of dynamics:
#MD.VariableCell       F
#MD.NumCGsteps         0           # 0 for single-point / 100 for gopt
#MD.MaxCGDispl         0.2 Bohr      # Default: 0.2 Bohr
#MD.MaxForceTol        0.02 eV/Ang   # Default: 0.04 eV/Ang
#MD.MaxStressTol       1.0 GPa       # Default: 1.0 GPa
# Geometry Constraints
#%block GeometryConstraints
#	position from 1 to 44
#%endblock GeometryConstraints
************************** End of input data file *****************************

reinit: -----------------------------------------------------------------------
reinit: System Name: GRP_doping
reinit: -----------------------------------------------------------------------
reinit: System Label: GRP_doping                                                  
reinit: -----------------------------------------------------------------------

initatom: Reading input for the pseudopotentials and atomic orbitals ----------
 Species number:            1  Label: B Atomic number:           5
 Species number:            2  Label: C Atomic number:           6
Ground state valence configuration:   2s02  2p01
Reading pseudopotential information in formatted form from B.psf

Valence configuration for pseudopotential generation:
2s( 2.00) rc: 1.74
2p( 1.00) rc: 1.74
3d( 0.00) rc: 1.74
4f( 0.00) rc: 1.74
Ground state valence configuration:   2s02  2p02
Reading pseudopotential information in formatted form from C.psf

Valence configuration for pseudopotential generation:
2s( 2.00) rc: 1.54
2p( 2.00) rc: 1.54
3d( 0.00) rc: 1.54
4f( 0.00) rc: 1.54
For B, standard SIESTA heuristics set lmxkb to 3
 (one more than the basis l, including polarization orbitals).
Use PS.lmax or PS.KBprojectors blocks to override.
For C, standard SIESTA heuristics set lmxkb to 3
 (one more than the basis l, including polarization orbitals).
Use PS.lmax or PS.KBprojectors blocks to override.

<basis_specs>
===============================================================================
B                    Z=   5    Mass=  10.810        Charge= 0.17977+309
Lmxo=1 Lmxkb= 3    BasisType=split      Semic=F
L=0  Nsemic=0  Cnfigmx=2
          n=1  nzeta=2  polorb=0
            splnorm:   0.15000    
               vcte:    0.0000    
               rinn:    0.0000    
                rcs:    0.0000      0.0000    
            lambdas:    1.0000      1.0000    
L=1  Nsemic=0  Cnfigmx=2
          n=1  nzeta=2  polorb=1
            splnorm:   0.15000    
               vcte:    0.0000    
               rinn:    0.0000    
                rcs:    0.0000      0.0000    
            lambdas:    1.0000      1.0000    
-------------------------------------------------------------------------------
L=0  Nkbl=1  erefs: 0.17977+309
L=1  Nkbl=1  erefs: 0.17977+309
L=2  Nkbl=1  erefs: 0.17977+309
L=3  Nkbl=1  erefs: 0.17977+309
===============================================================================
</basis_specs>

atom: Called for B                     (Z =   5)

read_vps: Pseudopotential generation method:
read_vps: ATM3      Troullier-Martins                       
Total valence charge:    3.00000

read_vps: Pseudopotential includes a core correction:
read_vps: Pseudo-core for xc-correction

xc_check: Exchange-correlation functional:
xc_check: GGA Perdew, Burke & Ernzerhof 1996
V l=0 = -2*Zval/r beyond r=  1.7165
V l=1 = -2*Zval/r beyond r=  1.7165
V l=2 = -2*Zval/r beyond r=  1.7165
V l=3 = -2*Zval/r beyond r=  1.6951
All V_l potentials equal beyond r=  1.7165
This should be close to max(r_c) in ps generation
All pots = -2*Zval/r beyond r=  1.7165

VLOCAL1: 99.0% of the norm of Vloc inside     14.733 Ry
VLOCAL1: 99.9% of the norm of Vloc inside     33.577 Ry
atom: Maximum radius for 4*pi*r*r*local-pseudopot. charge    2.04484
atom: Maximum radius for r*vlocal+2*Zval:    1.75994
GHOST: No ghost state for L =  0
GHOST: No ghost state for L =  1
GHOST: No ghost state for L =  2
GHOST: No ghost state for L =  3

KBgen: Kleinman-Bylander projectors: 
   l= 0   rc=  1.897051   el= -0.693730   Ekb=  4.595746   kbcos=  0.286105
   l= 1   rc=  1.920920   el= -0.265236   Ekb= -2.350715   kbcos= -0.315747
   l= 2   rc=  2.044840   el=  0.002055   Ekb= -0.690767   kbcos= -0.013822
   l= 3   rc=  2.149707   el=  0.003188   Ekb= -0.315358   kbcos= -0.002055

KBgen: Total number of  Kleinman-Bylander projectors:   16
atom: -------------------------------------------------------------------------

atom: SANKEY-TYPE ORBITALS:
atom: Selected multiple-zeta basis: split     

SPLIT: Orbitals with angular momentum L= 0

SPLIT: Basis orbitals for state 2s

SPLIT: PAO cut-off radius determined from an
SPLIT: energy shift=  0.007350 Ry

   izeta = 1
                 lambda =    1.000000
                     rc =    5.422032
                 energy =   -0.686029
                kinetic =    0.576707
    potential(screened) =   -1.262736
       potential(ionic) =   -3.271094

   izeta = 2
                 rmatch =    4.222573
              splitnorm =    0.150000
                 energy =   -0.602132
                kinetic =    0.858975
    potential(screened) =   -1.461107
       potential(ionic) =   -3.582536

SPLIT: Orbitals with angular momentum L= 1

SPLIT: Basis orbitals for state 2p

SPLIT: PAO cut-off radius determined from an
SPLIT: energy shift=  0.007350 Ry

   izeta = 1
                 lambda =    1.000000
                     rc =    6.790259
                 energy =   -0.258578
                kinetic =    1.481412
    potential(screened) =   -1.739989
       potential(ionic) =   -3.657461

   izeta = 2
                 rmatch =    4.608740
              splitnorm =    0.150000
                 energy =   -0.173757
                kinetic =    2.186690
    potential(screened) =   -2.360447
       potential(ionic) =   -4.464260

POLgen: Perturbative polarization orbital with L=  2

POLgen: Polarization orbital for state 2p

   izeta = 1
                     rc =    6.790259
                 energy =    0.684082
                kinetic =    1.471481
    potential(screened) =   -0.787399
       potential(ionic) =   -2.406985
atom: Total number of Sankey-type orbitals: 13

atm_pop: Valence configuration (for local Pseudopot. screening):
 2s( 2.00)                                                            
 2p( 1.00)                                                            
Vna: chval, zval:    3.00000   3.00000

Vna:  Cut-off radius for the neutral-atom potential:   6.790259
comcore: Pseudo-core radius Rcore=  2.122997

atom: _________________________________________________________________________

<basis_specs>
===============================================================================
C                    Z=   6    Mass=  12.010        Charge= 0.17977+309
Lmxo=1 Lmxkb= 3    BasisType=split      Semic=F
L=0  Nsemic=0  Cnfigmx=2
          n=1  nzeta=2  polorb=0
            splnorm:   0.15000    
               vcte:    0.0000    
               rinn:    0.0000    
                rcs:    0.0000      0.0000    
            lambdas:    1.0000      1.0000    
L=1  Nsemic=0  Cnfigmx=2
          n=1  nzeta=2  polorb=1
            splnorm:   0.15000    
               vcte:    0.0000    
               rinn:    0.0000    
                rcs:    0.0000      0.0000    
            lambdas:    1.0000      1.0000    
-------------------------------------------------------------------------------
L=0  Nkbl=1  erefs: 0.17977+309
L=1  Nkbl=1  erefs: 0.17977+309
L=2  Nkbl=1  erefs: 0.17977+309
L=3  Nkbl=1  erefs: 0.17977+309
===============================================================================
</basis_specs>

atom: Called for C                     (Z =   6)

read_vps: Pseudopotential generation method:
read_vps: ATM3      Troullier-Martins                       
Total valence charge:    4.00000

read_vps: Pseudopotential includes a core correction:
read_vps: Pseudo-core for xc-correction

xc_check: Exchange-correlation functional:
xc_check: GGA Perdew, Burke & Ernzerhof 1996
V l=0 = -2*Zval/r beyond r=  1.5227
V l=1 = -2*Zval/r beyond r=  1.5227
V l=2 = -2*Zval/r beyond r=  1.5227
V l=3 = -2*Zval/r beyond r=  1.5038
All V_l potentials equal beyond r=  1.5227
This should be close to max(r_c) in ps generation
All pots = -2*Zval/r beyond r=  1.5227

VLOCAL1: 99.0% of the norm of Vloc inside     18.722 Ry
VLOCAL1: 99.9% of the norm of Vloc inside     42.668 Ry
atom: Maximum radius for 4*pi*r*r*local-pseudopot. charge    1.83678
atom: Maximum radius for r*vlocal+2*Zval:    1.58088
GHOST: No ghost state for L =  0
GHOST: No ghost state for L =  1
GHOST: No ghost state for L =  2
GHOST: No ghost state for L =  3

KBgen: Kleinman-Bylander projectors: 
   l= 0   rc=  1.704034   el= -1.009801   Ekb=  5.335044   kbcos=  0.316824
   l= 1   rc=  1.704034   el= -0.388707   Ekb= -3.785862   kbcos= -0.366464
   l= 2   rc=  1.791422   el=  0.001971   Ekb= -0.970471   kbcos= -0.009212
   l= 3   rc=  1.859892   el=  0.003065   Ekb= -0.399525   kbcos= -0.001223

KBgen: Total number of  Kleinman-Bylander projectors:   16
atom: -------------------------------------------------------------------------

atom: SANKEY-TYPE ORBITALS:
atom: Selected multiple-zeta basis: split     

SPLIT: Orbitals with angular momentum L= 0

SPLIT: Basis orbitals for state 2s

SPLIT: PAO cut-off radius determined from an
SPLIT: energy shift=  0.007350 Ry

   izeta = 1
                 lambda =    1.000000
                     rc =    4.632753
                 energy =   -1.002270
                kinetic =    0.855760
    potential(screened) =   -1.858031
       potential(ionic) =   -5.417575

   izeta = 2
                 rmatch =    3.431921
              splitnorm =    0.150000
                 energy =   -0.867111
                kinetic =    1.300804
    potential(screened) =   -2.167915
       potential(ionic) =   -5.962684

SPLIT: Orbitals with angular momentum L= 1

SPLIT: Basis orbitals for state 2p

SPLIT: PAO cut-off radius determined from an
SPLIT: energy shift=  0.007350 Ry

   izeta = 1
                 lambda =    1.000000
                     rc =    5.658549
                 energy =   -0.381140
                kinetic =    2.399701
    potential(screened) =   -2.780841
       potential(ionic) =   -6.206085

   izeta = 2
                 rmatch =    3.653288
              splitnorm =    0.150000
                 energy =   -0.249149
                kinetic =    3.542762
    potential(screened) =   -3.791911
       potential(ionic) =   -7.581078

POLgen: Perturbative polarization orbital with L=  2

POLgen: Polarization orbital for state 2p

   izeta = 1
                     rc =    5.658549
                 energy =    1.109913
                kinetic =    2.304789
    potential(screened) =   -1.194876
       potential(ionic) =   -4.013592
atom: Total number of Sankey-type orbitals: 13

atm_pop: Valence configuration (for local Pseudopot. screening):
 2s( 2.00)                                                            
 2p( 2.00)                                                            
Vna: chval, zval:    4.00000   4.00000

Vna:  Cut-off radius for the neutral-atom potential:   5.658549
comcore: Pseudo-core radius Rcore=  1.791422

atom: _________________________________________________________________________

prinput: Basis input ----------------------------------------------------------

PAO.BasisType split     

%block ChemicalSpeciesLabel
    1    5 B                       # Species index, atomic number, species label
    2    6 C                       # Species index, atomic number, species label
%endblock ChemicalSpeciesLabel

%block PAO.Basis                 # Define Basis set
B                     2                    # Species label, number of l-shells
 n=2   0   2                         # n, l, Nzeta 
   5.422      4.223   
   1.000      1.000   
 n=2   1   2 P   1                   # n, l, Nzeta, Polarization, NzetaPol
   6.790      4.609   
   1.000      1.000   
C                     2                    # Species label, number of l-shells
 n=2   0   2                         # n, l, Nzeta 
   4.633      3.432   
   1.000      1.000   
 n=2   1   2 P   1                   # n, l, Nzeta, Polarization, NzetaPol
   5.659      3.653   
   1.000      1.000   
%endblock PAO.Basis

prinput: ----------------------------------------------------------------------

coor:   Atomic-coordinates input format  =     Cartesian coordinates
coor:                                          (in Angstroms)

siesta: Atomic coordinates (Bohr) and species
siesta:      2.23549   1.32088   0.00000  1        1
siesta:      9.21971   2.66443   0.00000  1        2
siesta:      4.56357   2.66443   0.00000  2        3
siesta:     32.50244  21.48363   0.00000  2        4
siesta:     34.83052  22.82718   0.00000  2        5
siesta:     34.83048  17.45108   0.00000  2        6
siesta:     37.15856  18.79463   0.00000  2        7
siesta:     32.50239  13.41853   0.00000  2        8
siesta:     34.83046  14.76208   0.00000  2        9
siesta:     30.17428   9.38598   0.00000  2       10
siesta:     32.50237  10.72953   0.00000  2       11
siesta:     27.84618   5.35343   0.00000  2       12
siesta:     30.17426   6.69698   0.00000  2       13
siesta:     27.84630  21.48363   0.00000  2       14
siesta:     30.17438  22.82718   0.00000  2       15
siesta:      6.89163   1.32088   0.00000  2       16
siesta:     11.54777   1.32088   0.00000  2       17
siesta:     13.87585   2.66443   0.00000  2       18
siesta:     16.20391   1.32088   0.00000  2       19
siesta:     18.53199   2.66443   0.00000  2       20
siesta:     20.86194   1.32088   0.00000  2       21
siesta:     23.19002   2.66443   0.00000  2       22
siesta:     25.51808   1.32088   0.00000  2       23
siesta:     27.84616   2.66443   0.00000  2       24
siesta:      4.56359   5.35343   0.00000  2       25
siesta:      6.89167   6.69698   0.00000  2       26
siesta:      9.21973   5.35343   0.00000  2       27
siesta:     11.54781   6.69698   0.00000  2       28
siesta:     13.87587   5.35343   0.00000  2       29
siesta:     16.20395   6.69698   0.00000  2       30
siesta:     18.53390   5.35343   0.00000  2       31
siesta:     20.86198   6.69698   0.00000  2       32
siesta:     23.19004   5.35343   0.00000  2       33
siesta:     25.51812   6.69698   0.00000  2       34
siesta:      6.89169   9.38598   0.00000  2       35
siesta:      9.21977  10.72953   0.00000  2       36
siesta:     11.54783   9.38598   0.00000  2       37
siesta:     13.87591  10.72953   0.00000  2       38
siesta:     16.20397   9.38598   0.00000  2       39
siesta:     18.53205  10.72953   0.00000  2       40
siesta:     20.86200   9.38598   0.00000  2       41
siesta:     23.19008  10.72953   0.00000  2       42
siesta:      9.21979  13.41853   0.00000  2       43
siesta:     11.54787  14.76208   0.00000  2       44
siesta:     13.87593  13.41853   0.00000  2       45
siesta:     16.20401  14.76208   0.00000  2       46
siesta:     18.53396  13.41853   0.00000  2       47
siesta:     20.86204  14.76208   0.00000  2       48
siesta:     11.54789  17.45108   0.00000  2       49
siesta:     13.87597  18.79463   0.00000  2       50
siesta:     16.20403  17.45108   0.00000  2       51
siesta:     18.53211  18.79463   0.00000  2       52
siesta:     13.87599  21.48363   0.00000  2       53
siesta:     16.20407  22.82718   0.00000  2       54
siesta:     18.53402  21.48363   0.00000  2       55
siesta:     20.86210  22.82718   0.00000  2       56
siesta:     25.51814   9.38598   0.00000  2       57
siesta:     27.84622  10.72953   0.00000  2       58
siesta:     23.19010  13.41853   0.00000  2       59
siesta:     25.51818  14.76208   0.00000  2       60
siesta:     20.86206  17.45108   0.00000  2       61
siesta:     23.19014  18.79463   0.00000  2       62
siesta:     27.84624  13.41853   0.00000  2       63
siesta:     30.17432  14.76208   0.00000  2       64
siesta:     25.51820  17.45108   0.00000  2       65
siesta:     27.84628  18.79463   0.00000  2       66
siesta:     23.19016  21.48363   0.00000  2       67
siesta:     25.51824  22.82718   0.00000  2       68
siesta:     30.17434  17.45108   0.00000  2       69
siesta:     32.50243  18.79463   0.00000  2       70
siesta:     37.16048  21.48363   0.00000  2       71
siesta:     39.48855  22.82718   0.00000  2       72

siesta: System type = slab      

initatomlists: Number of atoms, orbitals, and projectors:     72   936  1152

siesta: ******************** Simulation parameters ****************************
siesta:
siesta: The following are some of the parameters of the simulation.
siesta: A complete list of the parameters used, including default values,
siesta: can be found in file out.fdf
siesta:
redata: Non-Collinear-spin run           =     F
redata: SpinPolarized (Up/Down) run      =     F
redata: Number of spin components        =     1
redata: Long output                      =     F
redata: Number of Atomic Species         =        2
redata: Charge density info will appear in .RHO file
redata: Write Mulliken Pop.              =     NO
redata: Mesh Cutoff                      =   200.0000  Ry
redata: Net charge of the system         =     0.0000 |e|
redata: Max. number of SCF Iter          =      500
redata: SCF convergence failure will abort job
redata: Performing Pulay mixing using    =    10 iterations
redata: Mix DM in first SCF step ?       =     F
redata: Write Pulay info on disk?        =     F
redata: Discard 1st Pulay DM after  kick =     F
redata: New DM Mixing Weight             =     0.0500
redata: New DM Occupancy tolerance       = 0.000000000001
redata: No kicks to SCF
redata: DM Mixing Weight for Kicks       =     0.5000
redata: DM Tolerance for SCF             =     0.000100
redata: Require Energy convergence for SCF =     F
redata: DM Energy tolerance for SCF      =     0.000100 eV
redata: Require Harris convergence for SCF =     F
redata: DM Harris energy tolerance for SCF =     0.000100 eV
redata: Using Saved Data (generic)   =     F
redata: Use continuation files for DM    =     T
redata: Neglect nonoverlap interactions  =     F
redata: Method of Calculation            =     Diagonalization
redata: Divide and Conquer               =     T
redata: Electronic Temperature           =     0.0019  Ry
redata: Fix the spin of the system       =     F
redata: Dynamics option                  =     Verlet MD run
redata: Initial MD time step             =        1
redata:   Final MD time step             =        1
redata: Length of MD time step           =     1.0000  fs
redata: Initial Temperature of MD run    =     0.0000  K
redata: Perform a MD quench              =     F
redata: ***********************************************************************
Total number of electrons:   286.000000
Total ionic charge:   286.000000

* ProcessorY, Blocksize:    2  24

k-point displ. along   1 input, could be:     0.00    0.50
k-point displ. along   2 input, could be:     0.00    0.50
 Kpoints in:          364 . Kpoints trimmed:          352

siesta: k-grid: Number of k-points =   352
siesta: k-grid: Cutoff (effective) =     5.000 Ang
siesta: k-grid: Supercell and displacements
siesta: k-grid:   26   0   0      0.000
siesta: k-grid:    0  26   0      0.000
siesta: k-grid:    0   0   1      0.000
Naive supercell factors:     2    2    2

superc: Internal auxiliary supercell:     2 x     2 x     2  =       8
superc: Number of atoms, orbitals, and projectors:    576   7488   9216

* Maximum dynamic memory allocated =     6 MB

siesta:                 ==============================
                            Begin MD step =      1
                        ==============================

superc: Internal auxiliary supercell:     2 x     2 x     2  =       8
superc: Number of atoms, orbitals, and projectors:    576   7488   9216

outcell: Unit cell vectors (Ang):
       14.785000    0.000000    0.000000
        7.392500   12.804185    0.000000
        0.000000    0.000000   10.000000

outcell: Cell vector modules (Ang)   :   14.785000   14.785000   10.000000
outcell: Cell angles (23,13,12) (deg):     90.0000     90.0000     60.0000
outcell: Cell volume (Ang**3)        :   1893.0988
New_DM. Step:     1
Initializing Density Matrix...

iodm: Reading Density Matrix from files

InitMesh: MESH =   120 x   120 x    90 =     1296000
InitMesh: Mesh cutoff (required, used) =   200.000   223.865 Ry

* Maximum dynamic memory allocated =   200 MB

stepf: Fermi-Dirac step function

siesta: Program's energy decomposition (eV):
siesta: Ebs     =     -3883.323455
siesta: Eions   =     18146.897649
siesta: Ena     =      3930.161044
siesta: Ekin    =      7736.614854
siesta: Enl     =      -770.282665
siesta: DEna    =      -298.109029
siesta: DUscf   =        27.566392
siesta: DUext   =         0.000000
siesta: Exc     =     -4046.523290
siesta: eta*DQ  =         0.000000
siesta: Emadel  =         0.000000
siesta: Emeta   =         0.000000
siesta: Emolmec =         0.000000
siesta: Ekinion =         0.000000
siesta: Eharris =    -11567.467971
siesta: Etot    =    -11567.470342
siesta: FreeEng =    -11567.470342

siesta: iscf   Eharris(eV)      E_KS(eV)   FreeEng(eV)   dDmax  Ef(eV)
siesta:    1   -11567.4680   -11567.4703   -11567.4703  0.0002 -5.2935
timer: Routine,Calls,Time,% = IterSCF        1    8166.317  99.85
elaps: Routine,Calls,Wall,% = IterSCF        1    1022.480  99.85
siesta:    2   -11567.4680   -11567.4680   -11567.4805  0.0001 -5.2939
siesta:    3   -11567.4680   -11567.4686   -11567.4811  0.0001 -5.2937

siesta: E_KS(eV) =           -11567.4681

siesta: E_KS - E_eggbox =    -11567.4681

siesta: Atomic forces (eV/Ang):
----------------------------------------
   Tot    0.195364   -0.284471    0.000000
----------------------------------------
   Max    3.483700
   Res    0.583873    sqrt( Sum f_i^2 / 3N )
----------------------------------------
   Max    3.483700    constrained

Stress-tensor-Voigt (kbar):      -54.11      -53.72       -0.05       -0.62        0.00        0.00
(Free)E + p*V (eV/cell)   -11524.9913
Target enthalpy (eV/cell)   -11567.4806

siesta: Stress tensor (static) (eV/Ang**3):
        -0.033771   -0.000386    0.000000
        -0.000386   -0.033529    0.000000
         0.000000    0.000000   -0.000032

siesta: Pressure (static):         35.96015439  kBar

siesta: Stress tensor (total) (eV/Ang**3):
        -0.033771   -0.000386    0.000000
        -0.000386   -0.033529    0.000000
         0.000000    0.000000   -0.000032

siesta: Pressure (total):         35.96015439  kBar

siesta: Temp_ion =       0.000 K

* Maximum dynamic memory allocated =   214 MB

siesta: Program's energy decomposition (eV):
siesta: Ebs     =     -3883.319419
siesta: Eions   =     18146.897649
siesta: Ena     =      3930.161044
siesta: Ekin    =      7736.620981
siesta: Enl     =      -770.284320
siesta: DEna    =      -298.110833
siesta: DUscf   =        27.566460
siesta: DUext   =         0.000000
siesta: Exc     =     -4046.523771
siesta: eta*DQ  =         0.000000
siesta: Emadel  =         0.000000
siesta: Emeta   =         0.000000
siesta: Emolmec =         0.000000
siesta: Ekinion =         0.000000
siesta: Eharris =    -11567.467981
siesta: Etot    =    -11567.468087
siesta: FreeEng =    -11567.480633

siesta: Final energy (eV):
siesta:  Band Struct. =   -3883.319419
siesta:       Kinetic =    7736.620981
siesta:       Hartree =   22794.181038
siesta:    Ext. field =       0.000000
siesta:   Exch.-corr. =   -4046.523771
siesta:  Ion-electron =  -52706.156006
siesta:       Ion-ion =   14654.409671
siesta:       Ekinion =       0.000000
siesta:         Total =  -11567.468087

siesta: Atomic forces (eV/Ang):
siesta:      1   -0.056060    0.077219    0.000000
siesta:      2    0.051292   -0.088718    0.000000
siesta:      3    2.891293    1.197558    0.000000
siesta:      4    0.066215    0.020222    0.000000
siesta:      5   -0.077474    0.036901    0.000000
siesta:      6    0.075172    0.014733    0.000000
siesta:      7   -0.020962   -0.123470    0.000000
siesta:      8   -0.024636   -0.093075    0.000000
siesta:      9    0.053994   -0.003174    0.000000
siesta:     10   -0.027838   -0.164513    0.000000
siesta:     11    0.074205    0.153175    0.000000
siesta:     12   -0.657018   -0.352873    0.000000
siesta:     13    0.320760    0.179955    0.000000
siesta:     14   -0.118270   -0.118459    0.000000
siesta:     15   -0.031068    0.066841    0.000000
siesta:     16   -2.887175   -1.234394    0.000000
siesta:     17    3.081749   -1.744749    0.000000
siesta:     18    0.006269   -0.620005    0.000000
siesta:     19    0.122324    0.100534    0.000000
siesta:     20    0.078238   -0.062569    0.000000
siesta:     21   -0.069229    0.028783    0.000000
siesta:     22   -0.112720   -0.134659    0.000000
siesta:     23    0.008010    0.583343    0.000000
siesta:     24   -3.056632    1.702142    0.000000
siesta:     25    0.228479   -0.135214    0.000000
siesta:     26    0.463598    0.509751    0.000000
siesta:     27    0.030870    3.483700    0.000000
siesta:     28   -0.567883    0.285680    0.000000
siesta:     29    0.337902    0.163223    0.000000
siesta:     30   -0.243199   -0.173782    0.000000
siesta:     31    0.078482   -0.020565    0.000000
siesta:     32   -0.060411   -0.023797    0.000000
siesta:     33    0.028155   -0.049818    0.000000
siesta:     34    0.123095    0.113888    0.000000
siesta:     35   -0.110384    0.005080    0.000000
siesta:     36   -0.012996   -0.024515    0.000000
siesta:     37    0.182096    0.025864    0.000000
siesta:     38   -0.012526    0.063689    0.000000
siesta:     39    0.052625    0.111563    0.000000
siesta:     40   -0.028950   -0.029879    0.000000
siesta:     41   -0.005478   -0.007067    0.000000
siesta:     42    0.029115   -0.000688    0.000000
siesta:     43   -0.006874    0.020742    0.000000
siesta:     44   -0.050452    0.019657    0.000000
siesta:     45    0.059613   -0.026994    0.000000
siesta:     46    0.028735   -0.032130    0.000000
siesta:     47   -0.073759   -0.003255    0.000000
siesta:     48    0.029895    0.083220    0.000000
siesta:     49    0.005974   -0.068815    0.000000
siesta:     50   -0.177977   -0.034697    0.000000
siesta:     51    0.017197    0.011927    0.000000
siesta:     52    0.140919   -0.015203    0.000000
siesta:     53    0.592152   -0.294215    0.000000
siesta:     54    0.002555   -3.464254    0.000000
siesta:     55   -0.498239   -0.505247    0.000000
siesta:     56   -0.244860    0.151451    0.000000
siesta:     57   -0.091426    0.032158    0.000000
siesta:     58   -0.000299    0.061070    0.000000
siesta:     59    0.008862   -0.014732    0.000000
siesta:     60   -0.018907    0.049118    0.000000
siesta:     61   -0.083812   -0.158697    0.000000
siesta:     62    0.028983    0.154283    0.000000
siesta:     63    0.023822   -0.058112    0.000000
siesta:     64   -0.003103    0.006511    0.000000
siesta:     65    0.005355   -0.070237    0.000000
siesta:     66    0.095680   -0.041941    0.000000
siesta:     67   -0.302465   -0.187653    0.000000
siesta:     68    0.664121    0.364305    0.000000
siesta:     69   -0.028177   -0.007186    0.000000
siesta:     70   -0.018700    0.006243    0.000000
siesta:     71    0.238756    0.166755    0.000000
siesta:     72   -0.351235   -0.146406    0.000000
siesta: ----------------------------------------
siesta:    Tot    0.195364   -0.284471    0.000000

siesta: Stress tensor (static) (eV/Ang**3):
siesta:    -0.033771   -0.000386    0.000000
siesta:    -0.000386   -0.033529    0.000000
siesta:     0.000000    0.000000   -0.000032

siesta: Cell volume =       1893.098801 Ang**3

siesta: Pressure (static):
siesta:                Solid            Molecule  Units
siesta:           0.00024445          0.00037715  Ry/Bohr**3
siesta:           0.02244432          0.03462837  eV/Ang**3
siesta:          35.96015439         55.48136809  kBar
(Free)E+ p_basis*V_orbitals  =      -11536.111107
(Free)Eharris+ p_basis*V_orbitals  =      -11536.110520

siesta: Electric dipole (a.u.)  =    0.000000    0.000000    0.000000
siesta: Electric dipole (Debye) =    0.000000    0.000000    0.000000

* Maximum dynamic memory allocated : Node    0 =   214 MB
* Maximum dynamic memory allocated : Node    1 =    77 MB
* Maximum dynamic memory allocated : Node    2 =    80 MB
* Maximum dynamic memory allocated : Node    3 =   202 MB
* Maximum dynamic memory allocated : Node    4 =   212 MB
* Maximum dynamic memory allocated : Node    5 =    76 MB
* Maximum dynamic memory allocated : Node    6 =    79 MB
* Maximum dynamic memory allocated : Node    7 =   195 MB

* Maximum memory occured during matrixMtoO                    

timer: CPU execution times:
timer:  Routine       Calls   Time/call    Tot.time        %
timer:  siesta            1   24542.222   24542.222   100.00
timer:  Setup             1       3.102       3.102     0.01
timer:  bands             1       0.009       0.009     0.00
timer:  writewave         1       0.016       0.016     0.00
timer:  KSV_init          1       0.004       0.004     0.00
timer:  IterMD            1   24531.007   24531.007    99.95
timer:  hsparse           1       0.403       0.403     0.00
timer:  overlap           1       4.715       4.715     0.02
timer:  IterSCF           3    8113.691   24341.072    99.18
timer:  kinefsm           2       2.486       4.972     0.02
timer:  nlefsm            2      19.823      39.647     0.16
timer:  DHSCF             4     118.107     472.428     1.92
timer:  DHSCF1            1       1.054       1.054     0.00
timer:  DHSCF2            1      42.395      42.395     0.17
timer:  REORD            34       0.014       0.480     0.00
timer:  POISON            5       3.833      19.167     0.08
timer:  DHSCF3            4      98.503     394.012     1.61
timer:  rhoofd            4      18.549      74.196     0.30
timer:  cellXC            4       3.654      14.617     0.06
timer:  vmat              4      48.808     195.231     0.80
timer:  MolMec            2       0.000       0.000     0.00
timer:  diagon            3    7988.478   23965.434    97.65
timer:  c-eigval       1056       7.273    7680.173    31.29
timer:  c-buildHS      1056       0.219     230.785     0.94
timer:  cdiag          2112       7.469   15774.915    64.28
timer:  cdiag1         2112       0.466     983.842     4.01
timer:  cdiag2         2112       1.987    4197.223    17.10
timer:  cdiag3         2112       4.181    8829.733    35.98
timer:  cdiag4         2112       0.251     530.173     2.16
timer:  c-eigvec       1056       7.963    8408.835    34.26
timer:  c-buildD       1056       7.447    7863.546    32.04
timer:  DHSCF4            1      34.577      34.577     0.14
timer:  dfscf             1      32.066      32.066     0.13
timer:  overfsm           1       0.402       0.402     0.00
timer:  optical           1       7.094       7.094     0.03
  

elaps: ELAPSED times:
elaps:  Routine       Calls   Time/call    Tot.time        %
elaps:  siesta            1    3072.770    3072.770   100.00
elaps:  Setup             1       0.387       0.387     0.01
elaps:  bands             1       0.001       0.001     0.00
elaps:  writewave         1       0.002       0.002     0.00
elaps:  KSV_init          1       0.000       0.000     0.00
elaps:  IterMD            1    3071.368    3071.368    99.95
elaps:  hsparse           1       0.050       0.050     0.00
elaps:  overlap           1       0.980       0.980     0.03
elaps:  IterSCF           3    1015.868    3047.603    99.18
elaps:  kinefsm           2       0.535       1.069     0.03
elaps:  nlefsm            2       2.550       5.100     0.17
elaps:  DHSCF             4      15.648      62.592     2.04
elaps:  DHSCF1            1       0.140       0.140     0.00
elaps:  DHSCF2            1       5.300       5.300     0.17
elaps:  REORD            34       0.002       0.068     0.00
elaps:  POISON            5       0.481       2.404     0.08
elaps:  DHSCF3            4      12.327      49.308     1.60
elaps:  rhoofd            4       3.940      15.762     0.51
elaps:  cellXC            4       0.456       1.822     0.06
elaps:  vmat              4       6.109      24.435     0.80
elaps:  MolMec            2       0.000       0.000     0.00
elaps:  diagon            3    1000.240    3000.721    97.66
elaps:  c-eigval       1056       0.910     961.088    31.28
elaps:  c-buildHS      1056       0.029      30.535     0.99
elaps:  cdiag          2112       0.913    1928.621    62.76
elaps:  cdiag1         2112       0.058     122.640     3.99
elaps:  cdiag2         2112       0.249     525.189    17.09
elaps:  cdiag3         2112       0.524    1106.581    36.01
elaps:  cdiag4         2112       0.033      69.748     2.27
elaps:  c-eigvec       1056       0.958    1011.227    32.91
elaps:  c-buildD       1056       0.972    1026.658    33.41
elaps:  DHSCF4            1       7.793       7.793     0.25
elaps:  dfscf             1       7.321       7.321     0.24
elaps:  overfsm           1       0.054       0.054     0.00
elaps:  optical           1       0.000       0.000     0.00
  
>> End of run:  25-NOV-2015  23:27:01
