Siesta Version:                                        siesta-3.2-pl-3
Architecture  : x86_64-unknown-linux-gnu--unknown
Compiler flags: mpiifort -g -O2 -fPIC -xSSE4.1 -fp-model source -shared-intel 
PARALLEL version

* Running on    8 nodes in parallel
>> Start of run:  26-NOV-2015  23:44:08

                           ***********************       
                           *  WELCOME TO SIESTA  *       
                           ***********************       

reinit: Reading from standard input
************************** Dump of input data file ****************************
#(1) General system descriptors
SystemName            GRP_doping    # Descriptive name of the system
SystemLabel           GRP_doping    # Short name for naming files
%include STRUCT.fdf
%include KPT.fdf
%include BASIS.fdf
#%include TS.fdf # for transiesta calculation
#(4) DFT, Grid, SCF
XC.functional         GGA           # LDA or GGA (default = LDA)
XC.authors            PBE           # CA (Ceperley-Aldr) = PZ
                                    #    (Perdew-Zunger) - LDA - Default
                                    # PW92 (Perdew-Wang-92) - LDA
                                    # PBE (Perdew-Burke-Ernzerhof) - GGA
MeshCutoff            200.000000    Ry      # Default: 50.0 Ry ~ 0.444 Bohr
                                    #         100.0 Ry ~ 0.314 Bohr
MaxSCFIterations      500           # Default: 50
DM.MixingWeight       0.05          # Default: 0.25
DM.NumberPulay        10            # Default: 0
DM.PulayOnFile        F             # SystemLabel.P1, SystemLabel.P2
DM.Tolerance          1.d-4         # Default: 1.d-4
DM.UseSaveDM          .true.        # because of the bug
SCFMustConverge       .true.
NeglNonOverlapInt     F             # Default: F
#(5) Eigenvalue problem: order-N or diagonalization
SolutionMethod        Diagon        # or Transiesta
ElectronicTemperature 300.0 K       # Default: 300.0 K
#(6) Molecular dynamics and relaxations
#MD.TypeOfRun          CG            # Type of dynamics:
#MD.VariableCell       F
#MD.NumCGsteps         0           # 0 for single-point / 100 for gopt
#MD.MaxCGDispl         0.2 Bohr      # Default: 0.2 Bohr
#MD.MaxForceTol        0.02 eV/Ang   # Default: 0.04 eV/Ang
#MD.MaxStressTol       1.0 GPa       # Default: 1.0 GPa
# Geometry Constraints
#%block GeometryConstraints
#	position from 1 to 44
#%endblock GeometryConstraints
************************** End of input data file *****************************

reinit: -----------------------------------------------------------------------
reinit: System Name: GRP_doping
reinit: -----------------------------------------------------------------------
reinit: System Label: GRP_doping                                                  
reinit: -----------------------------------------------------------------------

initatom: Reading input for the pseudopotentials and atomic orbitals ----------
 Species number:            1  Label: N Atomic number:           7
 Species number:            2  Label: C Atomic number:           6
Ground state valence configuration:   2s02  2p03
Reading pseudopotential information in formatted form from N.psf

Valence configuration for pseudopotential generation:
2s( 2.00) rc: 1.48
2p( 3.00) rc: 1.48
3d( 0.00) rc: 1.48
4f( 0.00) rc: 1.48
Ground state valence configuration:   2s02  2p02
Reading pseudopotential information in formatted form from C.psf

Valence configuration for pseudopotential generation:
2s( 2.00) rc: 1.54
2p( 2.00) rc: 1.54
3d( 0.00) rc: 1.54
4f( 0.00) rc: 1.54
For N, standard SIESTA heuristics set lmxkb to 3
 (one more than the basis l, including polarization orbitals).
Use PS.lmax or PS.KBprojectors blocks to override.
For C, standard SIESTA heuristics set lmxkb to 3
 (one more than the basis l, including polarization orbitals).
Use PS.lmax or PS.KBprojectors blocks to override.

<basis_specs>
===============================================================================
N                    Z=   7    Mass=  14.010        Charge= 0.17977+309
Lmxo=1 Lmxkb= 3    BasisType=split      Semic=F
L=0  Nsemic=0  Cnfigmx=2
          n=1  nzeta=2  polorb=0
            splnorm:   0.15000    
               vcte:    0.0000    
               rinn:    0.0000    
                rcs:    0.0000      0.0000    
            lambdas:    1.0000      1.0000    
L=1  Nsemic=0  Cnfigmx=2
          n=1  nzeta=2  polorb=1
            splnorm:   0.15000    
               vcte:    0.0000    
               rinn:    0.0000    
                rcs:    0.0000      0.0000    
            lambdas:    1.0000      1.0000    
-------------------------------------------------------------------------------
L=0  Nkbl=1  erefs: 0.17977+309
L=1  Nkbl=1  erefs: 0.17977+309
L=2  Nkbl=1  erefs: 0.17977+309
L=3  Nkbl=1  erefs: 0.17977+309
===============================================================================
</basis_specs>

atom: Called for N                     (Z =   7)

read_vps: Pseudopotential generation method:
read_vps: ATM3      Troullier-Martins                       
Total valence charge:    5.00000

read_vps: Pseudopotential includes a core correction:
read_vps: Pseudo-core for xc-correction

xc_check: Exchange-correlation functional:
xc_check: GGA Perdew, Burke & Ernzerhof 1996
V l=0 = -2*Zval/r beyond r=  1.4606
V l=1 = -2*Zval/r beyond r=  1.4606
V l=2 = -2*Zval/r beyond r=  1.4606
V l=3 = -2*Zval/r beyond r=  1.4606
All V_l potentials equal beyond r=  1.4606
This should be close to max(r_c) in ps generation
All pots = -2*Zval/r beyond r=  1.4606

VLOCAL1: 99.0% of the norm of Vloc inside     20.347 Ry
VLOCAL1: 99.9% of the norm of Vloc inside     46.372 Ry
atom: Maximum radius for 4*pi*r*r*local-pseudopot. charge    1.76189
atom: Maximum radius for r*vlocal+2*Zval:    1.53550
GHOST: No ghost state for L =  0
GHOST: No ghost state for L =  1
GHOST: No ghost state for L =  2
GHOST: No ghost state for L =  3

KBgen: Kleinman-Bylander projectors: 
   l= 0   rc=  1.634559   el= -1.363963   Ekb=  5.296955   kbcos=  0.335621
   l= 1   rc=  1.614250   el= -0.521451   Ekb= -5.259161   kbcos= -0.433408
   l= 2   rc=  1.718383   el=  0.001991   Ekb= -1.271464   kbcos= -0.007566
   l= 3   rc=  1.761893   el=  0.003093   Ekb= -0.494769   kbcos= -0.001015

KBgen: Total number of  Kleinman-Bylander projectors:   16
atom: -------------------------------------------------------------------------

atom: SANKEY-TYPE ORBITALS:
atom: Selected multiple-zeta basis: split     

SPLIT: Orbitals with angular momentum L= 0

SPLIT: Basis orbitals for state 2s

SPLIT: PAO cut-off radius determined from an
SPLIT: energy shift=  0.007350 Ry

   izeta = 1
                 lambda =    1.000000
                     rc =    4.071465
                 energy =   -1.356470
                kinetic =    1.176977
    potential(screened) =   -2.533447
       potential(ionic) =   -8.057990

   izeta = 2
                 rmatch =    2.905100
              splitnorm =    0.150000
                 energy =   -1.158343
                kinetic =    1.813009
    potential(screened) =   -2.971352
       potential(ionic) =   -8.901931

SPLIT: Orbitals with angular momentum L= 1

SPLIT: Basis orbitals for state 2p

SPLIT: PAO cut-off radius determined from an
SPLIT: energy shift=  0.007350 Ry

   izeta = 1
                 lambda =    1.000000
                     rc =    4.972977
                 energy =   -0.513884
                kinetic =    3.441732
    potential(screened) =   -3.955616
       potential(ionic) =   -9.287901

   izeta = 2
                 rmatch =    3.054066
              splitnorm =    0.150000
                 energy =   -0.318226
                kinetic =    5.125348
    potential(screened) =   -5.443573
       potential(ionic) =  -11.380999

POLgen: Perturbative polarization orbital with L=  2

POLgen: Polarization orbital for state 2p

   izeta = 1
                     rc =    4.972977
                 energy =    1.607437
                kinetic =    3.268125
    potential(screened) =   -1.660688
       potential(ionic) =   -5.973652
atom: Total number of Sankey-type orbitals: 13

atm_pop: Valence configuration (for local Pseudopot. screening):
 2s( 2.00)                                                            
 2p( 3.00)                                                            
Vna: chval, zval:    5.00000   5.00000

Vna:  Cut-off radius for the neutral-atom potential:   4.972977
comcore: Pseudo-core radius Rcore=  1.554824

atom: _________________________________________________________________________

<basis_specs>
===============================================================================
C                    Z=   6    Mass=  12.010        Charge= 0.17977+309
Lmxo=1 Lmxkb= 3    BasisType=split      Semic=F
L=0  Nsemic=0  Cnfigmx=2
          n=1  nzeta=2  polorb=0
            splnorm:   0.15000    
               vcte:    0.0000    
               rinn:    0.0000    
                rcs:    0.0000      0.0000    
            lambdas:    1.0000      1.0000    
L=1  Nsemic=0  Cnfigmx=2
          n=1  nzeta=2  polorb=1
            splnorm:   0.15000    
               vcte:    0.0000    
               rinn:    0.0000    
                rcs:    0.0000      0.0000    
            lambdas:    1.0000      1.0000    
-------------------------------------------------------------------------------
L=0  Nkbl=1  erefs: 0.17977+309
L=1  Nkbl=1  erefs: 0.17977+309
L=2  Nkbl=1  erefs: 0.17977+309
L=3  Nkbl=1  erefs: 0.17977+309
===============================================================================
</basis_specs>

atom: Called for C                     (Z =   6)

read_vps: Pseudopotential generation method:
read_vps: ATM3      Troullier-Martins                       
Total valence charge:    4.00000

read_vps: Pseudopotential includes a core correction:
read_vps: Pseudo-core for xc-correction

xc_check: Exchange-correlation functional:
xc_check: GGA Perdew, Burke & Ernzerhof 1996
V l=0 = -2*Zval/r beyond r=  1.5227
V l=1 = -2*Zval/r beyond r=  1.5227
V l=2 = -2*Zval/r beyond r=  1.5227
V l=3 = -2*Zval/r beyond r=  1.5038
All V_l potentials equal beyond r=  1.5227
This should be close to max(r_c) in ps generation
All pots = -2*Zval/r beyond r=  1.5227

VLOCAL1: 99.0% of the norm of Vloc inside     18.722 Ry
VLOCAL1: 99.9% of the norm of Vloc inside     42.668 Ry
atom: Maximum radius for 4*pi*r*r*local-pseudopot. charge    1.83678
atom: Maximum radius for r*vlocal+2*Zval:    1.58088
GHOST: No ghost state for L =  0
GHOST: No ghost state for L =  1
GHOST: No ghost state for L =  2
GHOST: No ghost state for L =  3

KBgen: Kleinman-Bylander projectors: 
   l= 0   rc=  1.704034   el= -1.009801   Ekb=  5.335044   kbcos=  0.316824
   l= 1   rc=  1.704034   el= -0.388707   Ekb= -3.785862   kbcos= -0.366464
   l= 2   rc=  1.791422   el=  0.001971   Ekb= -0.970471   kbcos= -0.009212
   l= 3   rc=  1.859892   el=  0.003065   Ekb= -0.399525   kbcos= -0.001223

KBgen: Total number of  Kleinman-Bylander projectors:   16
atom: -------------------------------------------------------------------------

atom: SANKEY-TYPE ORBITALS:
atom: Selected multiple-zeta basis: split     

SPLIT: Orbitals with angular momentum L= 0

SPLIT: Basis orbitals for state 2s

SPLIT: PAO cut-off radius determined from an
SPLIT: energy shift=  0.007350 Ry

   izeta = 1
                 lambda =    1.000000
                     rc =    4.632753
                 energy =   -1.002270
                kinetic =    0.855760
    potential(screened) =   -1.858031
       potential(ionic) =   -5.417575

   izeta = 2
                 rmatch =    3.431921
              splitnorm =    0.150000
                 energy =   -0.867111
                kinetic =    1.300804
    potential(screened) =   -2.167915
       potential(ionic) =   -5.962684

SPLIT: Orbitals with angular momentum L= 1

SPLIT: Basis orbitals for state 2p

SPLIT: PAO cut-off radius determined from an
SPLIT: energy shift=  0.007350 Ry

   izeta = 1
                 lambda =    1.000000
                     rc =    5.658549
                 energy =   -0.381140
                kinetic =    2.399701
    potential(screened) =   -2.780841
       potential(ionic) =   -6.206085

   izeta = 2
                 rmatch =    3.653288
              splitnorm =    0.150000
                 energy =   -0.249149
                kinetic =    3.542762
    potential(screened) =   -3.791911
       potential(ionic) =   -7.581078

POLgen: Perturbative polarization orbital with L=  2

POLgen: Polarization orbital for state 2p

   izeta = 1
                     rc =    5.658549
                 energy =    1.109913
                kinetic =    2.304789
    potential(screened) =   -1.194876
       potential(ionic) =   -4.013592
atom: Total number of Sankey-type orbitals: 13

atm_pop: Valence configuration (for local Pseudopot. screening):
 2s( 2.00)                                                            
 2p( 2.00)                                                            
Vna: chval, zval:    4.00000   4.00000

Vna:  Cut-off radius for the neutral-atom potential:   5.658549
comcore: Pseudo-core radius Rcore=  1.791422

atom: _________________________________________________________________________

prinput: Basis input ----------------------------------------------------------

PAO.BasisType split     

%block ChemicalSpeciesLabel
    1    7 N                       # Species index, atomic number, species label
    2    6 C                       # Species index, atomic number, species label
%endblock ChemicalSpeciesLabel

%block PAO.Basis                 # Define Basis set
N                     2                    # Species label, number of l-shells
 n=2   0   2                         # n, l, Nzeta 
   4.071      2.905   
   1.000      1.000   
 n=2   1   2 P   1                   # n, l, Nzeta, Polarization, NzetaPol
   4.973      3.054   
   1.000      1.000   
C                     2                    # Species label, number of l-shells
 n=2   0   2                         # n, l, Nzeta 
   4.633      3.432   
   1.000      1.000   
 n=2   1   2 P   1                   # n, l, Nzeta, Polarization, NzetaPol
   5.659      3.653   
   1.000      1.000   
%endblock PAO.Basis

prinput: ----------------------------------------------------------------------

coor:   Atomic-coordinates input format  =     Cartesian coordinates
coor:                                          (in Angstroms)

siesta: Atomic coordinates (Bohr) and species
siesta:      2.23554   1.32097   0.00000  1        1
siesta:     18.53247  10.73026   0.00000  1        2
siesta:      4.56367   2.66461   0.00000  2        3
siesta:     32.50328  21.48508   0.00000  2        4
siesta:     34.83141  22.82873   0.00000  2        5
siesta:     34.83116  17.45226   0.00000  2        6
siesta:     37.15930  18.79590   0.00000  2        7
siesta:     32.50291  13.41944   0.00000  2        8
siesta:     34.83104  14.76308   0.00000  2        9
siesta:     30.17465   9.38661   0.00000  2       10
siesta:     32.50278  10.73026   0.00000  2       11
siesta:     27.84639   5.35379   0.00000  2       12
siesta:     30.17453   6.69743   0.00000  2       13
siesta:     27.84714  21.48508   0.00000  2       14
siesta:     30.17527  22.82873   0.00000  2       15
siesta:      6.89168   1.32097   0.00000  2       16
siesta:      9.21981   2.66461   0.00000  2       17
siesta:     11.54782   1.32097   0.00000  2       18
siesta:     13.87595   2.66461   0.00000  2       19
siesta:     16.20396   1.32097   0.00000  2       20
siesta:     18.53210   2.66461   0.00000  2       21
siesta:     20.86199   1.32097   0.00000  2       22
siesta:     23.19013   2.66461   0.00000  2       23
siesta:     25.51813   1.32097   0.00000  2       24
siesta:     27.84627   2.66461   0.00000  2       25
siesta:      4.56380   5.35379   0.00000  2       26
siesta:      6.89193   6.69743   0.00000  2       27
siesta:      9.21994   5.35379   0.00000  2       28
siesta:     11.54807   6.69743   0.00000  2       29
siesta:     13.87608   5.35379   0.00000  2       30
siesta:     16.20421   6.69743   0.00000  2       31
siesta:     18.53411   5.35379   0.00000  2       32
siesta:     20.86224   6.69743   0.00000  2       33
siesta:     23.19025   5.35379   0.00000  2       34
siesta:     25.51838   6.69743   0.00000  2       35
siesta:      6.89205   9.38661   0.00000  2       36
siesta:      9.22019  10.73026   0.00000  2       37
siesta:     11.54820   9.38661   0.00000  2       38
siesta:     13.87633  10.73026   0.00000  2       39
siesta:     16.20434   9.38661   0.00000  2       40
siesta:     20.86237   9.38661   0.00000  2       41
siesta:     23.19050  10.73026   0.00000  2       42
siesta:      9.22031  13.41944   0.00000  2       43
siesta:     11.54845  14.76308   0.00000  2       44
siesta:     13.87645  13.41944   0.00000  2       45
siesta:     16.20459  14.76308   0.00000  2       46
siesta:     18.53448  13.41944   0.00000  2       47
siesta:     20.86262  14.76308   0.00000  2       48
siesta:     11.54857  17.45226   0.00000  2       49
siesta:     13.87670  18.79590   0.00000  2       50
siesta:     16.20471  17.45226   0.00000  2       51
siesta:     18.53284  18.79590   0.00000  2       52
siesta:     13.87683  21.48508   0.00000  2       53
siesta:     16.20496  22.82873   0.00000  2       54
siesta:     18.53486  21.48508   0.00000  2       55
siesta:     20.86299  22.82873   0.00000  2       56
siesta:     25.51851   9.38661   0.00000  2       57
siesta:     27.84664  10.73026   0.00000  2       58
siesta:     23.19063  13.41944   0.00000  2       59
siesta:     25.51876  14.76308   0.00000  2       60
siesta:     20.86274  17.45226   0.00000  2       61
siesta:     23.19088  18.79590   0.00000  2       62
siesta:     27.84677  13.41944   0.00000  2       63
siesta:     30.17490  14.76308   0.00000  2       64
siesta:     25.51888  17.45226   0.00000  2       65
siesta:     27.84702  18.79590   0.00000  2       66
siesta:     23.19100  21.48508   0.00000  2       67
siesta:     25.51913  22.82873   0.00000  2       68
siesta:     30.17503  17.45226   0.00000  2       69
siesta:     32.50316  18.79590   0.00000  2       70
siesta:     37.16131  21.48508   0.00000  2       71
siesta:     39.48945  22.82873   0.00000  2       72

siesta: System type = slab      

initatomlists: Number of atoms, orbitals, and projectors:     72   936  1152

siesta: ******************** Simulation parameters ****************************
siesta:
siesta: The following are some of the parameters of the simulation.
siesta: A complete list of the parameters used, including default values,
siesta: can be found in file out.fdf
siesta:
redata: Non-Collinear-spin run           =     F
redata: SpinPolarized (Up/Down) run      =     F
redata: Number of spin components        =     1
redata: Long output                      =     F
redata: Number of Atomic Species         =        2
redata: Charge density info will appear in .RHO file
redata: Write Mulliken Pop.              =     NO
redata: Mesh Cutoff                      =   200.0000  Ry
redata: Net charge of the system         =     0.0000 |e|
redata: Max. number of SCF Iter          =      500
redata: SCF convergence failure will abort job
redata: Performing Pulay mixing using    =    10 iterations
redata: Mix DM in first SCF step ?       =     F
redata: Write Pulay info on disk?        =     F
redata: Discard 1st Pulay DM after  kick =     F
redata: New DM Mixing Weight             =     0.0500
redata: New DM Occupancy tolerance       = 0.000000000001
redata: No kicks to SCF
redata: DM Mixing Weight for Kicks       =     0.5000
redata: DM Tolerance for SCF             =     0.000100
redata: Require Energy convergence for SCF =     F
redata: DM Energy tolerance for SCF      =     0.000100 eV
redata: Require Harris convergence for SCF =     F
redata: DM Harris energy tolerance for SCF =     0.000100 eV
redata: Using Saved Data (generic)   =     F
redata: Use continuation files for DM    =     T
redata: Neglect nonoverlap interactions  =     F
redata: Method of Calculation            =     Diagonalization
redata: Divide and Conquer               =     T
redata: Electronic Temperature           =     0.0019  Ry
redata: Fix the spin of the system       =     F
redata: Dynamics option                  =     Verlet MD run
redata: Initial MD time step             =        1
redata:   Final MD time step             =        1
redata: Length of MD time step           =     1.0000  fs
redata: Initial Temperature of MD run    =     0.0000  K
redata: Perform a MD quench              =     F
redata: ***********************************************************************
Total number of electrons:   290.000000
Total ionic charge:   290.000000

* ProcessorY, Blocksize:    2  24

k-point displ. along   1 input, could be:     0.00    0.50
k-point displ. along   2 input, could be:     0.00    0.50
 Kpoints in:          364 . Kpoints trimmed:          352

siesta: k-grid: Number of k-points =   352
siesta: k-grid: Cutoff (effective) =     5.000 Ang
siesta: k-grid: Supercell and displacements
siesta: k-grid:   26   0   0      0.000
siesta: k-grid:    0  26   0      0.000
siesta: k-grid:    0   0   1      0.000
Naive supercell factors:     2    2    2

superc: Internal auxiliary supercell:     2 x     2 x     2  =       8
superc: Number of atoms, orbitals, and projectors:    576   7488   9216

* Maximum dynamic memory allocated =     6 MB

siesta:                 ==============================
                            Begin MD step =      1
                        ==============================

superc: Internal auxiliary supercell:     2 x     2 x     2  =       8
superc: Number of atoms, orbitals, and projectors:    576   7488   9216

outcell: Unit cell vectors (Ang):
       14.785000    0.000000    0.000000
        7.393000   12.805052    0.000000
        0.000000    0.000000   10.000000

outcell: Cell vector modules (Ang)   :   14.785000   14.786000   10.000000
outcell: Cell angles (23,13,12) (deg):     90.0000     90.0000     60.0000
outcell: Cell volume (Ang**3)        :   1893.2269
New_DM. Step:     1
Initializing Density Matrix...

InitMesh: MESH =   120 x   120 x    90 =     1296000
InitMesh: Mesh cutoff (required, used) =   200.000   223.865 Ry

* Maximum dynamic memory allocated =   192 MB

stepf: Fermi-Dirac step function

siesta: Program's energy decomposition (eV):
siesta: Ebs     =     -4609.112113
siesta: Eions   =     18724.504759
siesta: Ena     =      3995.658651
siesta: Ekin    =      6546.020172
siesta: Enl     =       159.699942
siesta: DEna    =        -0.000012
siesta: DUscf   =         0.000000
siesta: DUext   =         0.000000
siesta: Exc     =     -3989.295842
siesta: eta*DQ  =         0.000000
siesta: Emadel  =         0.000000
siesta: Emeta   =         0.000000
siesta: Emolmec =         0.000000
siesta: Ekinion =         0.000000
siesta: Eharris =    -11937.847927
siesta: Etot    =    -12012.421850
siesta: FreeEng =    -12012.421850

siesta: iscf   Eharris(eV)      E_KS(eV)   FreeEng(eV)   dDmax  Ef(eV)
siesta:    1   -11937.8479   -12012.4218   -12012.4218  1.9396 -5.4213
timer: Routine,Calls,Time,% = IterSCF        1    6603.894  99.83
elaps: Routine,Calls,Wall,% = IterSCF        1     826.442  99.83
siesta:    2   -11942.2461   -11911.9724   -11911.9837  0.4561 -3.8115
siesta:    3   -11929.1724   -11928.2024   -11928.2117  0.3114 -3.9520
siesta:    4   -11922.6125   -11925.5404   -11925.5496  0.1751 -3.5235
siesta:    5   -11922.5573   -11923.4780   -11923.4939  0.1265 -3.4285
siesta:    6   -11922.7742   -11920.5559   -11920.5680  0.1018 -3.5761
siesta:    7   -11922.0678   -11919.8861   -11919.8973  0.0404 -3.7540
siesta:    8   -11921.8633   -11920.1212   -11920.1349  0.0144 -3.7991
siesta:    9   -11921.7685   -11920.4214   -11920.4361  0.0117 -3.7945
siesta:   10   -11921.7658   -11920.6245   -11920.6389  0.0090 -3.7951
siesta:   11   -11921.7649   -11921.0941   -11921.1085  0.0048 -3.7898
siesta:   12   -11921.7644   -11921.7089   -11921.7233  0.0012 -3.7877
siesta:   13   -11921.7644   -11921.7830   -11921.7974  0.0009 -3.7874
siesta:   14   -11921.7643   -11921.7737   -11921.7881  0.0004 -3.7874
siesta:   15   -11921.7643   -11921.7677   -11921.7821  0.0003 -3.7874
siesta:   16   -11921.7643   -11921.7617   -11921.7761  0.0002 -3.7872
siesta:   17   -11921.7643   -11921.7588   -11921.7732  0.0001 -3.7872
siesta:   18   -11921.7643   -11921.7633   -11921.7777  0.0000 -3.7870

siesta: E_KS(eV) =           -11921.7638

siesta: E_KS - E_eggbox =    -11921.7638

siesta: Atomic forces (eV/Ang):
----------------------------------------
   Tot    0.211225   -0.282697    0.000000
----------------------------------------
   Max    0.575878
   Res    0.197500    sqrt( Sum f_i^2 / 3N )
----------------------------------------
   Max    0.575878    constrained

Stress-tensor-Voigt (kbar):      -28.14      -27.37        0.04       -0.34        0.00        0.00
(Free)E + p*V (eV/cell)   -11899.9311
Target enthalpy (eV/cell)   -11921.7782

siesta: Stress tensor (static) (eV/Ang**3):
        -0.017565   -0.000210    0.000000
        -0.000210   -0.017081    0.000000
         0.000000    0.000000    0.000027

siesta: Pressure (static):         18.48869006  kBar

siesta: Stress tensor (total) (eV/Ang**3):
        -0.017565   -0.000210    0.000000
        -0.000210   -0.017081    0.000000
         0.000000    0.000000    0.000027

siesta: Pressure (total):         18.48869006  kBar

siesta: Temp_ion =       0.000 K

* Maximum dynamic memory allocated =   207 MB

siesta: Program's energy decomposition (eV):
siesta: Ebs     =     -3990.738211
siesta: Eions   =     18724.504759
siesta: Ena     =      3995.658651
siesta: Ekin    =      7998.374130
siesta: Enl     =      -851.981433
siesta: DEna    =      -277.774274
siesta: DUscf   =        24.466660
siesta: DUext   =         0.000000
siesta: Exc     =     -4086.002749
siesta: eta*DQ  =         0.000000
siesta: Emadel  =         0.000000
siesta: Emeta   =         0.000000
siesta: Emolmec =         0.000000
siesta: Ekinion =         0.000000
siesta: Eharris =    -11921.764295
siesta: Etot    =    -11921.763775
siesta: FreeEng =    -11921.778155

siesta: Final energy (eV):
siesta:  Band Struct. =   -3990.738211
siesta:       Kinetic =    7998.374130
siesta:       Hartree =   23483.673255
siesta:    Ext. field =       0.000000
siesta:   Exch.-corr. =   -4086.002749
siesta:  Ion-electron =  -54358.581583
siesta:       Ion-ion =   15040.773173
siesta:       Ekinion =       0.000000
siesta:         Total =  -11921.763775

siesta: Atomic forces (eV/Ang):
siesta:      1   -0.016408   -0.034457    0.000000
siesta:      2    0.054448    0.031375    0.000000
siesta:      3   -0.501842   -0.290452    0.000000
siesta:      4    0.074959   -0.010531    0.000000
siesta:      5   -0.096683    0.152427    0.000000
siesta:      6    0.033893    0.049875    0.000000
siesta:      7    0.072736   -0.180167    0.000000
siesta:      8   -0.001245   -0.144578    0.000000
siesta:      9    0.132819   -0.060702    0.000000
siesta:     10   -0.010842   -0.362619    0.000000
siesta:     11    0.138255    0.127054    0.000000
siesta:     12    0.393985   -0.419441    0.000000
siesta:     13   -0.020492    0.363976    0.000000
siesta:     14   -0.112417    0.050765    0.000000
siesta:     15    0.005202    0.157045    0.000000
siesta:     16   -0.491415   -0.108408    0.000000
siesta:     17   -0.040207    0.255189    0.000000
siesta:     18   -0.016031   -0.097782    0.000000
siesta:     19    0.067950   -0.010698    0.000000
siesta:     20   -0.112190   -0.161677    0.000000
siesta:     21    0.057830    0.343318    0.000000
siesta:     22    0.105387   -0.187315    0.000000
siesta:     23   -0.048197    0.192905    0.000000
siesta:     24    0.528143   -0.092933    0.000000
siesta:     25    0.505264   -0.278138    0.000000
siesta:     26   -0.323001   -0.402340    0.000000
siesta:     27    0.199450   -0.157396    0.000000
siesta:     28   -0.108576   -0.078352    0.000000
siesta:     29    0.114599    0.070092    0.000000
siesta:     30   -0.190987    0.149247    0.000000
siesta:     31    0.347143    0.391629    0.000000
siesta:     32   -0.000768   -0.368359    0.000000
siesta:     33   -0.392926    0.412691    0.000000
siesta:     34    0.239587    0.117679    0.000000
siesta:     35   -0.229013   -0.129858    0.000000
siesta:     36   -0.076957    0.003029    0.000000
siesta:     37    0.023273    0.069097    0.000000
siesta:     38    0.045166   -0.267544    0.000000
siesta:     39    0.499267    0.079263    0.000000
siesta:     40    0.511188    0.274274    0.000000
siesta:     41   -0.515394    0.270095    0.000000
siesta:     42   -0.523495    0.065490    0.000000
siesta:     43   -0.183285   -0.049549    0.000000
siesta:     44    0.310649   -0.154278    0.000000
siesta:     45   -0.289034    0.199993    0.000000
siesta:     46    0.190271   -0.545507    0.000000
siesta:     47   -0.041588   -0.568738    0.000000
siesta:     48   -0.208080   -0.476466    0.000000
siesta:     49   -0.076444    0.188427    0.000000
siesta:     50    0.143789   -0.131985    0.000000
siesta:     51    0.237761    0.122108    0.000000
siesta:     52   -0.189667   -0.135092    0.000000
siesta:     53    0.231501    0.467534    0.000000
siesta:     54    0.043811    0.575878    0.000000
siesta:     55   -0.194060    0.537858    0.000000
siesta:     56    0.290792   -0.189384    0.000000
siesta:     57    0.049650   -0.207381    0.000000
siesta:     58   -0.136892    0.161970    0.000000
siesta:     59    0.369021    0.197477    0.000000
siesta:     60   -0.328262   -0.185546    0.000000
siesta:     61   -0.170328    0.131741    0.000000
siesta:     62    0.064223   -0.194485    0.000000
siesta:     63    0.139133   -0.144090    0.000000
siesta:     64   -0.066817    0.007434    0.000000
siesta:     65   -0.042321    0.168735    0.000000
siesta:     66   -0.028933   -0.057941    0.000000
siesta:     67   -0.307078    0.150855    0.000000
siesta:     68    0.171039    0.068057    0.000000
siesta:     69   -0.005628   -0.016853    0.000000
siesta:     70    0.011226    0.007709    0.000000
siesta:     71    0.292037    0.186634    0.000000
siesta:     72   -0.386715   -0.180577    0.000000
siesta: ----------------------------------------
siesta:    Tot    0.211225   -0.282697    0.000000

siesta: Stress tensor (static) (eV/Ang**3):
siesta:    -0.017565   -0.000210    0.000000
siesta:    -0.000210   -0.017081    0.000000
siesta:     0.000000    0.000000    0.000027

siesta: Cell volume =       1893.226895 Ang**3

siesta: Pressure (static):
siesta:                Solid            Molecule  Units
siesta:           0.00012568          0.00008675  Ry/Bohr**3
siesta:           0.01153961          0.00796512  eV/Ang**3
siesta:          18.48869006         12.76166960  kBar
(Free)E+ p_basis*V_orbitals  =      -11891.326463
(Free)Eharris+ p_basis*V_orbitals  =      -11891.327426

siesta: Electric dipole (a.u.)  =    0.000000    0.000000    0.000000
siesta: Electric dipole (Debye) =    0.000000    0.000000    0.000000

* Maximum dynamic memory allocated : Node    0 =   207 MB
* Maximum dynamic memory allocated : Node    1 =    74 MB
* Maximum dynamic memory allocated : Node    2 =    77 MB
* Maximum dynamic memory allocated : Node    3 =   196 MB
* Maximum dynamic memory allocated : Node    4 =   207 MB
* Maximum dynamic memory allocated : Node    5 =    74 MB
* Maximum dynamic memory allocated : Node    6 =    76 MB
* Maximum dynamic memory allocated : Node    7 =   191 MB

* Maximum memory occured during matrixMtoO                    

timer: CPU execution times:
timer:  Routine       Calls   Time/call    Tot.time        %
timer:  siesta            1  117984.165  117984.165   100.00
timer:  Setup             1       3.101       3.101     0.00
timer:  bands             1       0.009       0.009     0.00
timer:  writewave         1       0.016       0.016     0.00
timer:  KSV_init          1       0.000       0.000     0.00
timer:  IterMD            1  117972.903  117972.903    99.99
timer:  hsparse           1       0.254       0.254     0.00
timer:  overlap           1       4.659       4.659     0.00
timer:  IterSCF          18    6543.881  117789.865    99.84
timer:  kinefsm           2       2.429       4.857     0.00
timer:  nlefsm            2      19.318      38.637     0.03
timer:  DHSCF            19      94.569    1796.820     1.52
timer:  DHSCF1            1       0.765       0.765     0.00
timer:  DHSCF2            1      33.517      33.517     0.03
timer:  REORD           154       0.010       1.494     0.00
timer:  POISON           20       2.255      45.104     0.04
timer:  DHSCF3           19      90.997    1728.947     1.47
timer:  rhoofd           19      17.245     327.658     0.28
timer:  cellXC           19       3.498      66.456     0.06
timer:  vmat             19      46.761     888.465     0.75
timer:  MolMec            2       0.000       0.001     0.00
timer:  diagon           18    6448.357  116070.417    98.38
timer:  c-eigval       6336       6.686   42359.450    35.90
timer:  c-buildHS      6336       0.120     757.404     0.64
timer:  cdiag         12672       6.847   86771.034    73.54
timer:  cdiag1        12672       0.425    5384.542     4.56
timer:  cdiag2        12672       1.910   24202.461    20.51
timer:  cdiag3        12672       3.954   50104.962    42.47
timer:  cdiag4        12672       0.203    2576.107     2.18
timer:  c-eigvec       6336       7.202   45631.207    38.68
timer:  c-buildD       6336       4.424   28028.246    23.76
timer:  DHSCF4            1      32.567      32.567     0.03
timer:  dfscf             1      30.701      30.701     0.03
timer:  overfsm           1       0.379       0.379     0.00
timer:  optical           1       7.143       7.143     0.01
  

elaps: ELAPSED times:
elaps:  Routine       Calls   Time/call    Tot.time        %
elaps:  siesta            1   14764.617   14764.617   100.00
elaps:  Setup             1       0.386       0.386     0.00
elaps:  bands             1       0.001       0.001     0.00
elaps:  writewave         1       0.002       0.002     0.00
elaps:  KSV_init          1       0.000       0.000     0.00
elaps:  IterMD            1   14763.209   14763.209    99.99
elaps:  hsparse           1       0.031       0.031     0.00
elaps:  overlap           1       0.967       0.967     0.01
elaps:  IterSCF          18     818.906   14740.314    99.84
elaps:  kinefsm           2       0.500       0.999     0.01
elaps:  nlefsm            2       2.321       4.641     0.03
elaps:  DHSCF            19      12.006     228.110     1.54
elaps:  DHSCF1            1       0.099       0.099     0.00
elaps:  DHSCF2            1       4.189       4.189     0.03
elaps:  REORD           154       0.001       0.207     0.00
elaps:  POISON           20       0.282       5.646     0.04
elaps:  DHSCF3           19      11.383     216.285     1.46
elaps:  rhoofd           19       3.702      70.347     0.48
elaps:  cellXC           19       0.437       8.300     0.06
elaps:  vmat             19       5.849     111.124     0.75
elaps:  MolMec            2       0.000       0.000     0.00
elaps:  diagon           18     806.970   14525.452    98.38
elaps:  c-eigval       6336       0.836    5299.826    35.90
elaps:  c-buildHS      6336       0.016     102.816     0.70
elaps:  cdiag         12672       0.848   10745.615    72.78
elaps:  cdiag1        12672       0.053     668.210     4.53
elaps:  cdiag2        12672       0.239    3028.482    20.51
elaps:  cdiag3        12672       0.495    6277.297    42.52
elaps:  cdiag4        12672       0.025     322.904     2.19
elaps:  c-eigvec       6336       0.889    5635.674    38.17
elaps:  c-buildD       6336       0.565    3581.894    24.26
elaps:  DHSCF4            1       7.399       7.399     0.05
elaps:  dfscf             1       7.022       7.022     0.05
elaps:  overfsm           1       0.048       0.048     0.00
elaps:  optical           1       0.000       0.000     0.00
  
>> End of run:  27-NOV-2015   3:50:13
