Siesta Version:                                        siesta-3.2-pl-3
Architecture  : x86_64-unknown-linux-gnu--unknown
Compiler flags: mpiifort -g -O2 -fPIC -xSSE4.1 -fp-model source -shared-intel 
PARALLEL version

* Running on    8 nodes in parallel
>> Start of run:  28-NOV-2015  18:26:46

                           ***********************       
                           *  WELCOME TO SIESTA  *       
                           ***********************       

reinit: Reading from standard input
************************** Dump of input data file ****************************
#(1) General system descriptors
SystemName            GRP_doping    # Descriptive name of the system
SystemLabel           GRP_doping    # Short name for naming files
%include STRUCT.fdf
%include KPT.fdf
%include BASIS.fdf
#%include TS.fdf # for transiesta calculation
#(4) DFT, Grid, SCF
XC.functional         GGA           # LDA or GGA (default = LDA)
XC.authors            PBE           # CA (Ceperley-Aldr) = PZ
                                    #    (Perdew-Zunger) - LDA - Default
                                    # PW92 (Perdew-Wang-92) - LDA
                                    # PBE (Perdew-Burke-Ernzerhof) - GGA
MeshCutoff            200.000000    Ry      # Default: 50.0 Ry ~ 0.444 Bohr
                                    #         100.0 Ry ~ 0.314 Bohr
MaxSCFIterations      500           # Default: 50
DM.MixingWeight       0.05          # Default: 0.25
DM.NumberPulay        10            # Default: 0
DM.PulayOnFile        F             # SystemLabel.P1, SystemLabel.P2
DM.Tolerance          1.d-4         # Default: 1.d-4
DM.UseSaveDM          .true.        # because of the bug
SCFMustConverge       .true.
NeglNonOverlapInt     F             # Default: F
#(5) Eigenvalue problem: order-N or diagonalization
SolutionMethod        Diagon        # or Transiesta
ElectronicTemperature 300.0 K       # Default: 300.0 K
#(6) Molecular dynamics and relaxations
#MD.TypeOfRun          CG            # Type of dynamics:
#MD.VariableCell       F
#MD.NumCGsteps         0           # 0 for single-point / 100 for gopt
#MD.MaxCGDispl         0.2 Bohr      # Default: 0.2 Bohr
#MD.MaxForceTol        0.02 eV/Ang   # Default: 0.04 eV/Ang
#MD.MaxStressTol       1.0 GPa       # Default: 1.0 GPa
# Geometry Constraints
#%block GeometryConstraints
#	position from 1 to 44
#%endblock GeometryConstraints
************************** End of input data file *****************************

reinit: -----------------------------------------------------------------------
reinit: System Name: GRP_doping
reinit: -----------------------------------------------------------------------
reinit: System Label: GRP_doping                                                  
reinit: -----------------------------------------------------------------------

initatom: Reading input for the pseudopotentials and atomic orbitals ----------
 Species number:            1  Label: C Atomic number:           6
 Species number:            2  Label: B Atomic number:           5
Ground state valence configuration:   2s02  2p02
Reading pseudopotential information in formatted form from C.psf

Valence configuration for pseudopotential generation:
2s( 2.00) rc: 1.54
2p( 2.00) rc: 1.54
3d( 0.00) rc: 1.54
4f( 0.00) rc: 1.54
Ground state valence configuration:   2s02  2p01
Reading pseudopotential information in formatted form from B.psf

Valence configuration for pseudopotential generation:
2s( 2.00) rc: 1.74
2p( 1.00) rc: 1.74
3d( 0.00) rc: 1.74
4f( 0.00) rc: 1.74
For C, standard SIESTA heuristics set lmxkb to 3
 (one more than the basis l, including polarization orbitals).
Use PS.lmax or PS.KBprojectors blocks to override.
For B, standard SIESTA heuristics set lmxkb to 3
 (one more than the basis l, including polarization orbitals).
Use PS.lmax or PS.KBprojectors blocks to override.

<basis_specs>
===============================================================================
C                    Z=   6    Mass=  12.010        Charge= 0.17977+309
Lmxo=1 Lmxkb= 3    BasisType=split      Semic=F
L=0  Nsemic=0  Cnfigmx=2
          n=1  nzeta=2  polorb=0
            splnorm:   0.15000    
               vcte:    0.0000    
               rinn:    0.0000    
                rcs:    0.0000      0.0000    
            lambdas:    1.0000      1.0000    
L=1  Nsemic=0  Cnfigmx=2
          n=1  nzeta=2  polorb=1
            splnorm:   0.15000    
               vcte:    0.0000    
               rinn:    0.0000    
                rcs:    0.0000      0.0000    
            lambdas:    1.0000      1.0000    
-------------------------------------------------------------------------------
L=0  Nkbl=1  erefs: 0.17977+309
L=1  Nkbl=1  erefs: 0.17977+309
L=2  Nkbl=1  erefs: 0.17977+309
L=3  Nkbl=1  erefs: 0.17977+309
===============================================================================
</basis_specs>

atom: Called for C                     (Z =   6)

read_vps: Pseudopotential generation method:
read_vps: ATM3      Troullier-Martins                       
Total valence charge:    4.00000

read_vps: Pseudopotential includes a core correction:
read_vps: Pseudo-core for xc-correction

xc_check: Exchange-correlation functional:
xc_check: GGA Perdew, Burke & Ernzerhof 1996
V l=0 = -2*Zval/r beyond r=  1.5227
V l=1 = -2*Zval/r beyond r=  1.5227
V l=2 = -2*Zval/r beyond r=  1.5227
V l=3 = -2*Zval/r beyond r=  1.5038
All V_l potentials equal beyond r=  1.5227
This should be close to max(r_c) in ps generation
All pots = -2*Zval/r beyond r=  1.5227

VLOCAL1: 99.0% of the norm of Vloc inside     18.722 Ry
VLOCAL1: 99.9% of the norm of Vloc inside     42.668 Ry
atom: Maximum radius for 4*pi*r*r*local-pseudopot. charge    1.83678
atom: Maximum radius for r*vlocal+2*Zval:    1.58088
GHOST: No ghost state for L =  0
GHOST: No ghost state for L =  1
GHOST: No ghost state for L =  2
GHOST: No ghost state for L =  3

KBgen: Kleinman-Bylander projectors: 
   l= 0   rc=  1.704034   el= -1.009801   Ekb=  5.335044   kbcos=  0.316824
   l= 1   rc=  1.704034   el= -0.388707   Ekb= -3.785862   kbcos= -0.366464
   l= 2   rc=  1.791422   el=  0.001971   Ekb= -0.970471   kbcos= -0.009212
   l= 3   rc=  1.859892   el=  0.003065   Ekb= -0.399525   kbcos= -0.001223

KBgen: Total number of  Kleinman-Bylander projectors:   16
atom: -------------------------------------------------------------------------

atom: SANKEY-TYPE ORBITALS:
atom: Selected multiple-zeta basis: split     

SPLIT: Orbitals with angular momentum L= 0

SPLIT: Basis orbitals for state 2s

SPLIT: PAO cut-off radius determined from an
SPLIT: energy shift=  0.007350 Ry

   izeta = 1
                 lambda =    1.000000
                     rc =    4.632753
                 energy =   -1.002270
                kinetic =    0.855760
    potential(screened) =   -1.858031
       potential(ionic) =   -5.417575

   izeta = 2
                 rmatch =    3.431921
              splitnorm =    0.150000
                 energy =   -0.867111
                kinetic =    1.300804
    potential(screened) =   -2.167915
       potential(ionic) =   -5.962684

SPLIT: Orbitals with angular momentum L= 1

SPLIT: Basis orbitals for state 2p

SPLIT: PAO cut-off radius determined from an
SPLIT: energy shift=  0.007350 Ry

   izeta = 1
                 lambda =    1.000000
                     rc =    5.658549
                 energy =   -0.381140
                kinetic =    2.399701
    potential(screened) =   -2.780841
       potential(ionic) =   -6.206085

   izeta = 2
                 rmatch =    3.653288
              splitnorm =    0.150000
                 energy =   -0.249149
                kinetic =    3.542762
    potential(screened) =   -3.791911
       potential(ionic) =   -7.581078

POLgen: Perturbative polarization orbital with L=  2

POLgen: Polarization orbital for state 2p

   izeta = 1
                     rc =    5.658549
                 energy =    1.109913
                kinetic =    2.304789
    potential(screened) =   -1.194876
       potential(ionic) =   -4.013592
atom: Total number of Sankey-type orbitals: 13

atm_pop: Valence configuration (for local Pseudopot. screening):
 2s( 2.00)                                                            
 2p( 2.00)                                                            
Vna: chval, zval:    4.00000   4.00000

Vna:  Cut-off radius for the neutral-atom potential:   5.658549
comcore: Pseudo-core radius Rcore=  1.791422

atom: _________________________________________________________________________

<basis_specs>
===============================================================================
B                    Z=   5    Mass=  10.810        Charge= 0.17977+309
Lmxo=1 Lmxkb= 3    BasisType=split      Semic=F
L=0  Nsemic=0  Cnfigmx=2
          n=1  nzeta=2  polorb=0
            splnorm:   0.15000    
               vcte:    0.0000    
               rinn:    0.0000    
                rcs:    0.0000      0.0000    
            lambdas:    1.0000      1.0000    
L=1  Nsemic=0  Cnfigmx=2
          n=1  nzeta=2  polorb=1
            splnorm:   0.15000    
               vcte:    0.0000    
               rinn:    0.0000    
                rcs:    0.0000      0.0000    
            lambdas:    1.0000      1.0000    
-------------------------------------------------------------------------------
L=0  Nkbl=1  erefs: 0.17977+309
L=1  Nkbl=1  erefs: 0.17977+309
L=2  Nkbl=1  erefs: 0.17977+309
L=3  Nkbl=1  erefs: 0.17977+309
===============================================================================
</basis_specs>

atom: Called for B                     (Z =   5)

read_vps: Pseudopotential generation method:
read_vps: ATM3      Troullier-Martins                       
Total valence charge:    3.00000

read_vps: Pseudopotential includes a core correction:
read_vps: Pseudo-core for xc-correction

xc_check: Exchange-correlation functional:
xc_check: GGA Perdew, Burke & Ernzerhof 1996
V l=0 = -2*Zval/r beyond r=  1.7165
V l=1 = -2*Zval/r beyond r=  1.7165
V l=2 = -2*Zval/r beyond r=  1.7165
V l=3 = -2*Zval/r beyond r=  1.6951
All V_l potentials equal beyond r=  1.7165
This should be close to max(r_c) in ps generation
All pots = -2*Zval/r beyond r=  1.7165

VLOCAL1: 99.0% of the norm of Vloc inside     14.733 Ry
VLOCAL1: 99.9% of the norm of Vloc inside     33.577 Ry
atom: Maximum radius for 4*pi*r*r*local-pseudopot. charge    2.04484
atom: Maximum radius for r*vlocal+2*Zval:    1.75994
GHOST: No ghost state for L =  0
GHOST: No ghost state for L =  1
GHOST: No ghost state for L =  2
GHOST: No ghost state for L =  3

KBgen: Kleinman-Bylander projectors: 
   l= 0   rc=  1.897051   el= -0.693730   Ekb=  4.595746   kbcos=  0.286105
   l= 1   rc=  1.920920   el= -0.265236   Ekb= -2.350715   kbcos= -0.315747
   l= 2   rc=  2.044840   el=  0.002055   Ekb= -0.690767   kbcos= -0.013822
   l= 3   rc=  2.149707   el=  0.003188   Ekb= -0.315358   kbcos= -0.002055

KBgen: Total number of  Kleinman-Bylander projectors:   16
atom: -------------------------------------------------------------------------

atom: SANKEY-TYPE ORBITALS:
atom: Selected multiple-zeta basis: split     

SPLIT: Orbitals with angular momentum L= 0

SPLIT: Basis orbitals for state 2s

SPLIT: PAO cut-off radius determined from an
SPLIT: energy shift=  0.007350 Ry

   izeta = 1
                 lambda =    1.000000
                     rc =    5.422032
                 energy =   -0.686029
                kinetic =    0.576707
    potential(screened) =   -1.262736
       potential(ionic) =   -3.271094

   izeta = 2
                 rmatch =    4.222573
              splitnorm =    0.150000
                 energy =   -0.602132
                kinetic =    0.858975
    potential(screened) =   -1.461107
       potential(ionic) =   -3.582536

SPLIT: Orbitals with angular momentum L= 1

SPLIT: Basis orbitals for state 2p

SPLIT: PAO cut-off radius determined from an
SPLIT: energy shift=  0.007350 Ry

   izeta = 1
                 lambda =    1.000000
                     rc =    6.790259
                 energy =   -0.258578
                kinetic =    1.481412
    potential(screened) =   -1.739989
       potential(ionic) =   -3.657461

   izeta = 2
                 rmatch =    4.608740
              splitnorm =    0.150000
                 energy =   -0.173757
                kinetic =    2.186690
    potential(screened) =   -2.360447
       potential(ionic) =   -4.464260

POLgen: Perturbative polarization orbital with L=  2

POLgen: Polarization orbital for state 2p

   izeta = 1
                     rc =    6.790259
                 energy =    0.684082
                kinetic =    1.471481
    potential(screened) =   -0.787399
       potential(ionic) =   -2.406985
atom: Total number of Sankey-type orbitals: 13

atm_pop: Valence configuration (for local Pseudopot. screening):
 2s( 2.00)                                                            
 2p( 1.00)                                                            
Vna: chval, zval:    3.00000   3.00000

Vna:  Cut-off radius for the neutral-atom potential:   6.790259
comcore: Pseudo-core radius Rcore=  2.122997

atom: _________________________________________________________________________

prinput: Basis input ----------------------------------------------------------

PAO.BasisType split     

%block ChemicalSpeciesLabel
    1    6 C                       # Species index, atomic number, species label
    2    5 B                       # Species index, atomic number, species label
%endblock ChemicalSpeciesLabel

%block PAO.Basis                 # Define Basis set
C                     2                    # Species label, number of l-shells
 n=2   0   2                         # n, l, Nzeta 
   4.633      3.432   
   1.000      1.000   
 n=2   1   2 P   1                   # n, l, Nzeta, Polarization, NzetaPol
   5.659      3.653   
   1.000      1.000   
B                     2                    # Species label, number of l-shells
 n=2   0   2                         # n, l, Nzeta 
   5.422      4.223   
   1.000      1.000   
 n=2   1   2 P   1                   # n, l, Nzeta, Polarization, NzetaPol
   6.790      4.609   
   1.000      1.000   
%endblock PAO.Basis

prinput: ----------------------------------------------------------------------

coor:   Atomic-coordinates input format  =     Cartesian coordinates
coor:                                          (in Angstroms)

siesta: Atomic coordinates (Bohr) and species
siesta:      2.23554   1.32097   0.00000  1        1
siesta:     32.50328  21.48508   0.00000  1        2
siesta:     34.83141  22.82873   0.00000  1        3
siesta:     34.83116  17.45226   0.00000  1        4
siesta:     37.15930  18.79590   0.00000  1        5
siesta:     32.50291  13.41944   0.00000  1        6
siesta:     34.83104  14.76308   0.00000  1        7
siesta:     30.17465   9.38661   0.00000  1        8
siesta:     32.50278  10.73026   0.00000  1        9
siesta:     27.84639   5.35379   0.00000  1       10
siesta:     30.17453   6.69743   0.00000  1       11
siesta:     27.84714  21.48508   0.00000  1       12
siesta:     30.17527  22.82873   0.00000  1       13
siesta:      6.89168   1.32097   0.00000  1       14
siesta:      9.21981   2.66461   0.00000  1       15
siesta:     13.87595   2.66461   0.00000  1       16
siesta:     16.20396   1.32097   0.00000  1       17
siesta:     18.53210   2.66461   0.00000  1       18
siesta:     23.19013   2.66461   0.00000  1       19
siesta:     25.51813   1.32097   0.00000  1       20
siesta:     27.84627   2.66461   0.00000  1       21
siesta:      4.56380   5.35379   0.00000  1       22
siesta:      6.89193   6.69743   0.00000  1       23
siesta:      9.21994   5.35379   0.00000  1       24
siesta:     11.54807   6.69743   0.00000  1       25
siesta:     13.87608   5.35379   0.00000  1       26
siesta:     16.20421   6.69743   0.00000  1       27
siesta:     18.53411   5.35379   0.00000  1       28
siesta:     20.86224   6.69743   0.00000  1       29
siesta:     23.19025   5.35379   0.00000  1       30
siesta:     25.51838   6.69743   0.00000  1       31
siesta:      9.22019  10.73026   0.00000  1       32
siesta:     11.54820   9.38661   0.00000  1       33
siesta:     13.87633  10.73026   0.00000  1       34
siesta:     18.53247  10.73026   0.00000  1       35
siesta:     20.86237   9.38661   0.00000  1       36
siesta:     23.19050  10.73026   0.00000  1       37
siesta:      9.22031  13.41944   0.00000  1       38
siesta:     11.54845  14.76308   0.00000  1       39
siesta:     13.87645  13.41944   0.00000  1       40
siesta:     16.20459  14.76308   0.00000  1       41
siesta:     18.53448  13.41944   0.00000  1       42
siesta:     20.86262  14.76308   0.00000  1       43
siesta:     13.87670  18.79590   0.00000  1       44
siesta:     16.20471  17.45226   0.00000  1       45
siesta:     18.53284  18.79590   0.00000  1       46
siesta:     13.87683  21.48508   0.00000  1       47
siesta:     16.20496  22.82873   0.00000  1       48
siesta:     18.53486  21.48508   0.00000  1       49
siesta:     20.86299  22.82873   0.00000  1       50
siesta:     27.84664  10.73026   0.00000  1       51
siesta:     23.19063  13.41944   0.00000  1       52
siesta:     25.51876  14.76308   0.00000  1       53
siesta:     23.19088  18.79590   0.00000  1       54
siesta:     27.84677  13.41944   0.00000  1       55
siesta:     30.17490  14.76308   0.00000  1       56
siesta:     25.51888  17.45226   0.00000  1       57
siesta:     27.84702  18.79590   0.00000  1       58
siesta:     23.19100  21.48508   0.00000  1       59
siesta:     25.51913  22.82873   0.00000  1       60
siesta:     30.17503  17.45226   0.00000  1       61
siesta:     32.50316  18.79590   0.00000  1       62
siesta:     39.48945  22.82873   0.00000  1       63
siesta:      4.56367   2.66461   0.00000  2       64
siesta:     11.54782   1.32097   0.00000  2       65
siesta:     20.86199   1.32097   0.00000  2       66
siesta:      6.89205   9.38661   0.00000  2       67
siesta:     16.20434   9.38661   0.00000  2       68
siesta:     11.54857  17.45226   0.00000  2       69
siesta:     25.51851   9.38661   0.00000  2       70
siesta:     20.86274  17.45226   0.00000  2       71
siesta:     37.16131  21.48508   0.00000  2       72

siesta: System type = slab      

initatomlists: Number of atoms, orbitals, and projectors:     72   936  1152

siesta: ******************** Simulation parameters ****************************
siesta:
siesta: The following are some of the parameters of the simulation.
siesta: A complete list of the parameters used, including default values,
siesta: can be found in file out.fdf
siesta:
redata: Non-Collinear-spin run           =     F
redata: SpinPolarized (Up/Down) run      =     F
redata: Number of spin components        =     1
redata: Long output                      =     F
redata: Number of Atomic Species         =        2
redata: Charge density info will appear in .RHO file
redata: Write Mulliken Pop.              =     NO
redata: Mesh Cutoff                      =   200.0000  Ry
redata: Net charge of the system         =     0.0000 |e|
redata: Max. number of SCF Iter          =      500
redata: SCF convergence failure will abort job
redata: Performing Pulay mixing using    =    10 iterations
redata: Mix DM in first SCF step ?       =     F
redata: Write Pulay info on disk?        =     F
redata: Discard 1st Pulay DM after  kick =     F
redata: New DM Mixing Weight             =     0.0500
redata: New DM Occupancy tolerance       = 0.000000000001
redata: No kicks to SCF
redata: DM Mixing Weight for Kicks       =     0.5000
redata: DM Tolerance for SCF             =     0.000100
redata: Require Energy convergence for SCF =     F
redata: DM Energy tolerance for SCF      =     0.000100 eV
redata: Require Harris convergence for SCF =     F
redata: DM Harris energy tolerance for SCF =     0.000100 eV
redata: Using Saved Data (generic)   =     F
redata: Use continuation files for DM    =     T
redata: Neglect nonoverlap interactions  =     F
redata: Method of Calculation            =     Diagonalization
redata: Divide and Conquer               =     T
redata: Electronic Temperature           =     0.0019  Ry
redata: Fix the spin of the system       =     F
redata: Dynamics option                  =     Verlet MD run
redata: Initial MD time step             =        1
redata:   Final MD time step             =        1
redata: Length of MD time step           =     1.0000  fs
redata: Initial Temperature of MD run    =     0.0000  K
redata: Perform a MD quench              =     F
redata: ***********************************************************************
Total number of electrons:   279.000000
Total ionic charge:   279.000000

* ProcessorY, Blocksize:    2  24

k-point displ. along   1 input, could be:     0.00    0.50
k-point displ. along   2 input, could be:     0.00    0.50
 Kpoints in:          364 . Kpoints trimmed:          352

siesta: k-grid: Number of k-points =   352
siesta: k-grid: Cutoff (effective) =     5.000 Ang
siesta: k-grid: Supercell and displacements
siesta: k-grid:   26   0   0      0.000
siesta: k-grid:    0  26   0      0.000
siesta: k-grid:    0   0   1      0.000
Naive supercell factors:     2    2    2

superc: Internal auxiliary supercell:     2 x     2 x     2  =       8
superc: Number of atoms, orbitals, and projectors:    576   7488   9216

* Maximum dynamic memory allocated =     6 MB

siesta:                 ==============================
                            Begin MD step =      1
                        ==============================

superc: Internal auxiliary supercell:     2 x     2 x     2  =       8
superc: Number of atoms, orbitals, and projectors:    576   7488   9216

outcell: Unit cell vectors (Ang):
       14.785000    0.000000    0.000000
        7.393000   12.805052    0.000000
        0.000000    0.000000   10.000000

outcell: Cell vector modules (Ang)   :   14.785000   14.786000   10.000000
outcell: Cell angles (23,13,12) (deg):     90.0000     90.0000     60.0000
outcell: Cell volume (Ang**3)        :   1893.2269
New_DM. Step:     1
Initializing Density Matrix...

InitMesh: MESH =   120 x   120 x    90 =     1296000
InitMesh: Mesh cutoff (required, used) =   200.000   223.865 Ry

* Maximum dynamic memory allocated =   207 MB

stepf: Fermi-Dirac step function

siesta: Program's energy decomposition (eV):
siesta: Ebs     =     -4462.478369
siesta: Eions   =     17250.500670
siesta: Ena     =      3769.684921
siesta: Ekin    =      5903.534022
siesta: Enl     =       294.189154
siesta: DEna    =        -0.000010
siesta: DUscf   =         0.000000
siesta: DUext   =         0.000000
siesta: Exc     =     -3961.775102
siesta: eta*DQ  =         0.000000
siesta: Emadel  =         0.000000
siesta: Emeta   =         0.000000
siesta: Emolmec =         0.000000
siesta: Ekinion =         0.000000
siesta: Eharris =    -11173.450192
siesta: Etot    =    -11244.867685
siesta: FreeEng =    -11244.867685

siesta: iscf   Eharris(eV)      E_KS(eV)   FreeEng(eV)   dDmax  Ef(eV)
siesta:    1   -11173.4502   -11244.8677   -11244.8677  1.9108 -8.1038
timer: Routine,Calls,Time,% = IterSCF        1    6757.512  99.84
elaps: Routine,Calls,Wall,% = IterSCF        1     846.036  99.88
siesta:    2   -11199.7239   -11124.7791   -11124.8112  0.8168 -3.9473
siesta:    3   -11154.3219   -11161.4125   -11161.4601  0.5168 -5.3066
siesta:    4   -11151.2777   -11160.2660   -11160.2908  0.4534 -5.4533
siesta:    5   -11148.0490   -11153.1375   -11153.1864  0.3237 -5.5439
siesta:    6   -11146.0155   -11147.8154   -11147.8475  0.1870 -5.7500
siesta:    7   -11148.4601   -11144.2113   -11144.2415  0.0954 -5.8580
siesta:    8   -11146.0910   -11142.6844   -11142.7127  0.0455 -5.8820
siesta:    9   -11145.8562   -11142.3605   -11142.3932  0.0382 -5.9083
siesta:   10   -11145.1421   -11142.6547   -11142.6862  0.0153 -5.9576
siesta:   11   -11145.0814   -11142.8573   -11142.8874  0.0123 -5.9604
siesta:   12   -11145.0305   -11143.5060   -11143.5370  0.0089 -5.9640
siesta:   13   -11145.0256   -11143.8417   -11143.8743  0.0066 -5.9669
siesta:   14   -11145.0259   -11144.2261   -11144.2590  0.0056 -5.9641
siesta:   15   -11145.0255   -11144.7919   -11144.8249  0.0027 -5.9564
siesta:   16   -11145.0240   -11144.9494   -11144.9819  0.0014 -5.9538
siesta:   17   -11145.0234   -11145.0000   -11145.0327  0.0009 -5.9533
siesta:   18   -11145.0233   -11145.0211   -11145.0538  0.0006 -5.9534
siesta:   19   -11145.0232   -11145.0316   -11145.0642  0.0005 -5.9533
siesta:   20   -11145.0232   -11145.0224   -11145.0550  0.0003 -5.9536
siesta:   21   -11145.0232   -11145.0252   -11145.0579  0.0002 -5.9537
siesta:   22   -11145.0232   -11145.0293   -11145.0620  0.0002 -5.9537
siesta:   23   -11145.0232   -11145.0323   -11145.0649  0.0001 -5.9538

siesta: E_KS(eV) =           -11145.0324

siesta: E_KS - E_eggbox =    -11145.0324

siesta: Atomic forces (eV/Ang):
----------------------------------------
   Tot    0.189992   -0.135097    0.000000
----------------------------------------
   Max    3.716955
   Res    1.214476    sqrt( Sum f_i^2 / 3N )
----------------------------------------
   Max    3.716955    constrained

Stress-tensor-Voigt (kbar):     -119.71     -117.63       -0.25       -1.49        0.00        0.00
(Free)E + p*V (eV/cell)   -11051.4822
Target enthalpy (eV/cell)   -11145.0651

siesta: Stress tensor (static) (eV/Ang**3):
        -0.074717   -0.000930    0.000000
        -0.000930   -0.073416    0.000000
         0.000000    0.000000   -0.000158

siesta: Pressure (static):         79.19698840  kBar

siesta: Stress tensor (total) (eV/Ang**3):
        -0.074717   -0.000930    0.000000
        -0.000930   -0.073416    0.000000
         0.000000    0.000000   -0.000158

siesta: Pressure (total):         79.19698840  kBar

siesta: Temp_ion =       0.000 K

* Maximum dynamic memory allocated =   223 MB

siesta: Program's energy decomposition (eV):
siesta: Ebs     =     -3690.914271
siesta: Eions   =     17250.500670
siesta: Ena     =      3769.684921
siesta: Ekin    =      7407.776858
siesta: Enl     =      -692.266652
siesta: DEna    =      -342.374808
siesta: DUscf   =        36.488848
siesta: DUext   =         0.000000
siesta: Exc     =     -4073.840918
siesta: eta*DQ  =         0.000000
siesta: Emadel  =         0.000000
siesta: Emeta   =         0.000000
siesta: Emolmec =         0.000000
siesta: Ekinion =         0.000000
siesta: Eharris =    -11145.023214
siesta: Etot    =    -11145.032422
siesta: FreeEng =    -11145.065053

siesta: Final energy (eV):
siesta:  Band Struct. =   -3690.914271
siesta:       Kinetic =    7407.776858
siesta:       Hartree =   21694.931532
siesta:    Ext. field =       0.000000
siesta:   Exch.-corr. =   -4073.840918
siesta:  Ion-electron =  -50129.106306
siesta:       Ion-ion =   13955.206413
siesta:       Ekinion =       0.000000
siesta:         Total =  -11145.032422

siesta: Atomic forces (eV/Ang):
siesta:      1   -3.223488   -1.884748    0.000000
siesta:      2    0.137807    0.390517    0.000000
siesta:      3   -3.106604   -1.466019    0.000000
siesta:      4    0.417362   -0.099266    0.000000
siesta:      5   -2.847774   -1.961073    0.000000
siesta:      6   -0.407623   -0.280304    0.000000
siesta:      7   -0.548413    0.327194    0.000000
siesta:      8   -0.239487    1.487229    0.000000
siesta:      9   -3.019052    1.633209    0.000000
siesta:     10   -0.527201    0.057398    0.000000
siesta:     11    0.582348   -0.152334    0.000000
siesta:     12   -0.431840   -0.236424    0.000000
siesta:     13   -0.005066   -0.623670    0.000000
siesta:     14    3.101960   -1.661462    0.000000
siesta:     15   -2.801864    1.091567    0.000000
siesta:     16    2.943035    1.393682    0.000000
siesta:     17   -0.018156    1.429298    0.000000
siesta:     18   -2.772443    1.692402    0.000000
siesta:     19    2.785984    2.043786    0.000000
siesta:     20    0.656972    0.082265    0.000000
siesta:     21    0.448907   -0.833043    0.000000
siesta:     22    0.126730    3.474311    0.000000
siesta:     23   -0.460238   -2.951774    0.000000
siesta:     24   -0.675919   -0.406683    0.000000
siesta:     25   -0.163384   -0.086859    0.000000
siesta:     26    1.117774   -0.411902    0.000000
siesta:     27   -0.031903   -3.199992    0.000000
siesta:     28   -1.076197   -0.481923    0.000000
siesta:     29   -0.120896    0.005159    0.000000
siesta:     30    0.869204   -0.792879    0.000000
siesta:     31    0.287072   -3.395956    0.000000
siesta:     32    2.676719    1.859090    0.000000
siesta:     33    0.215248    1.148769    0.000000
siesta:     34   -2.808076    1.561434    0.000000
siesta:     35    2.790800    1.586514    0.000000
siesta:     36   -0.149377    1.055622    0.000000
siesta:     37   -2.674657    1.682068    0.000000
siesta:     38    1.242094   -0.761074    0.000000
siesta:     39    0.060115   -3.272578    0.000000
siesta:     40   -0.923380   -0.681279    0.000000
siesta:     41   -0.033978   -0.101554    0.000000
siesta:     42    0.820624   -0.644254    0.000000
siesta:     43    0.110383   -3.134293    0.000000
siesta:     44    3.159410    1.393086    0.000000
siesta:     45   -0.237546    1.126028    0.000000
siesta:     46   -2.763638    1.948770    0.000000
siesta:     47    0.442977    0.498792    0.000000
siesta:     48   -0.466259    0.813158    0.000000
siesta:     49   -0.238761   -0.502799    0.000000
siesta:     50    0.148807    0.597020    0.000000
siesta:     51    3.102401    1.592628    0.000000
siesta:     52   -1.202804   -0.712574    0.000000
siesta:     53    0.384939    0.230500    0.000000
siesta:     54    2.923801    1.898397    0.000000
siesta:     55    0.428850   -0.122078    0.000000
siesta:     56   -0.017838    0.361508    0.000000
siesta:     57    0.118929    0.411779    0.000000
siesta:     58    0.300339   -0.190057    0.000000
siesta:     59    1.181915   -0.972459    0.000000
siesta:     60   -0.108266   -3.402862    0.000000
siesta:     61    0.195862    0.097794    0.000000
siesta:     62   -0.707204   -0.404807    0.000000
siesta:     63    3.716955    2.187922    0.000000
siesta:     64   -0.421280   -0.224299    0.000000
siesta:     65    0.142596   -0.031233    0.000000
siesta:     66   -0.563326   -0.503259    0.000000
siesta:     67    0.063023    0.105479    0.000000
siesta:     68   -0.001012   -0.017633    0.000000
siesta:     69   -0.687905   -0.225265    0.000000
siesta:     70    0.056326    0.048453    0.000000
siesta:     71    0.049164    0.013885    0.000000
siesta:     72   -1.134584   -0.631141    0.000000
siesta: ----------------------------------------
siesta:    Tot    0.189992   -0.135097    0.000000

siesta: Stress tensor (static) (eV/Ang**3):
siesta:    -0.074717   -0.000930    0.000000
siesta:    -0.000930   -0.073416    0.000000
siesta:     0.000000    0.000000   -0.000158

siesta: Cell volume =       1893.226895 Ang**3

siesta: Pressure (static):
siesta:                Solid            Molecule  Units
siesta:           0.00053836          0.00060333  Ry/Bohr**3
siesta:           0.04943034          0.05539535  eV/Ang**3
siesta:          79.19698840         88.75409608  kBar
(Free)E+ p_basis*V_orbitals  =      -11111.483854
(Free)Eharris+ p_basis*V_orbitals  =      -11111.474782

siesta: Electric dipole (a.u.)  =    0.000000    0.000000    0.000000
siesta: Electric dipole (Debye) =    0.000000    0.000000    0.000000

* Maximum dynamic memory allocated : Node    0 =   221 MB
* Maximum dynamic memory allocated : Node    1 =    80 MB
* Maximum dynamic memory allocated : Node    2 =    84 MB
* Maximum dynamic memory allocated : Node    3 =   211 MB
* Maximum dynamic memory allocated : Node    4 =   223 MB
* Maximum dynamic memory allocated : Node    5 =    81 MB
* Maximum dynamic memory allocated : Node    6 =    83 MB
* Maximum dynamic memory allocated : Node    7 =   205 MB

* Maximum memory occured during matrixMtoO                    

timer: CPU execution times:
timer:  Routine       Calls   Time/call    Tot.time        %
timer:  siesta            1  153605.532  153605.532   100.00
timer:  Setup             1       3.037       3.037     0.00
timer:  bands             1       0.009       0.009     0.00
timer:  writewave         1       0.017       0.017     0.00
timer:  KSV_init          1       0.000       0.000     0.00
timer:  IterMD            1  153594.430  153594.430    99.99
timer:  hsparse           1       0.397       0.397     0.00
timer:  overlap           1       6.404       6.404     0.00
timer:  IterSCF          23    6669.592  153400.608    99.87
timer:  kinefsm           2       3.316       6.633     0.00
timer:  nlefsm            2      20.324      40.648     0.03
timer:  DHSCF            24     104.819    2515.668     1.64
timer:  DHSCF1            1       0.989       0.989     0.00
timer:  DHSCF2            1      42.028      42.028     0.03
timer:  REORD           194       0.010       1.968     0.00
timer:  POISON           25       2.253      56.336     0.04
timer:  DHSCF3           24     101.426    2434.220     1.58
timer:  rhoofd           24      19.874     476.982     0.31
timer:  cellXC           24       3.532      84.760     0.06
timer:  vmat             24      52.177    1252.239     0.82
timer:  MolMec            2       0.000       0.000     0.00
timer:  diagon           23    6563.347  150956.971    98.28
timer:  c-eigval       8096       6.689   54156.413    35.26
timer:  c-buildHS      8096       0.122     991.195     0.65
timer:  cdiag         16192       6.900  111730.198    72.74
timer:  cdiag1        16192       0.427    6917.083     4.50
timer:  cdiag2        16192       1.907   30875.620    20.10
timer:  cdiag3        16192       3.956   64051.414    41.70
timer:  cdiag4        16192       0.229    3711.842     2.42
timer:  c-eigvec       8096       7.306   59150.542    38.51
timer:  c-buildD       8096       4.642   37581.880    24.47
timer:  DHSCF4            1      37.170      37.170     0.02
timer:  dfscf             1      34.631      34.631     0.02
timer:  overfsm           1       0.426       0.426     0.00
timer:  optical           1       7.055       7.055     0.00
  

elaps: ELAPSED times:
elaps:  Routine       Calls   Time/call    Tot.time        %
elaps:  siesta            1   19222.746   19222.746   100.00
elaps:  Setup             1       0.379       0.379     0.00
elaps:  bands             1       0.001       0.001     0.00
elaps:  writewave         1       0.002       0.002     0.00
elaps:  KSV_init          1       0.000       0.000     0.00
elaps:  IterMD            1   19221.356   19221.356    99.99
elaps:  hsparse           1       0.049       0.049     0.00
elaps:  overlap           1       0.528       0.528     0.00
elaps:  IterSCF          23     834.672   19197.446    99.87
elaps:  kinefsm           2       0.279       0.557     0.00
elaps:  nlefsm            2       2.593       5.186     0.03
elaps:  DHSCF            24      13.263     318.311     1.66
elaps:  DHSCF1            1       0.127       0.127     0.00
elaps:  DHSCF2            1       5.258       5.258     0.03
elaps:  REORD           194       0.001       0.245     0.00
elaps:  POISON           25       0.283       7.074     0.04
elaps:  DHSCF3           24      12.688     304.520     1.58
elaps:  rhoofd           24       4.238     101.721     0.53
elaps:  cellXC           24       0.441      10.579     0.06
elaps:  vmat             24       6.527     156.648     0.81
elaps:  MolMec            2       0.000       0.000     0.00
elaps:  diagon           23     821.387   18891.907    98.28
elaps:  c-eigval       8096       0.837    6775.870    35.25
elaps:  c-buildHS      8096       0.017     135.185     0.70
elaps:  cdiag         16192       0.851   13780.540    71.69
elaps:  cdiag1        16192       0.053     856.976     4.46
elaps:  cdiag2        16192       0.239    3863.359    20.10
elaps:  cdiag3        16192       0.496    8024.793    41.75
elaps:  cdiag4        16192       0.029     466.376     2.43
elaps:  c-eigvec       8096       0.894    7236.856    37.65
elaps:  c-buildD       8096       0.602    4869.898    25.33
elaps:  DHSCF4            1       8.231       8.231     0.04
elaps:  dfscf             1       7.742       7.742     0.04
elaps:  overfsm           1       0.052       0.052     0.00
elaps:  optical           1       0.000       0.000     0.00
  
>> End of run:  28-NOV-2015  23:47:09
