Siesta Version:                                        siesta-3.2-pl-3
Architecture  : x86_64-unknown-linux-gnu--unknown
Compiler flags: mpiifort -g -O2 -fPIC -xSSE4.1 -fp-model source -shared-intel 
PARALLEL version

* Running on    8 nodes in parallel
>> Start of run:  29-NOV-2015   0:14:43

                           ***********************       
                           *  WELCOME TO SIESTA  *       
                           ***********************       

reinit: Reading from standard input
************************** Dump of input data file ****************************
#(1) General system descriptors
SystemName            GRP_doping    # Descriptive name of the system
SystemLabel           GRP_doping    # Short name for naming files
%include STRUCT.fdf
%include KPT.fdf
%include BASIS.fdf
#%include TS.fdf # for transiesta calculation
#(4) DFT, Grid, SCF
XC.functional         GGA           # LDA or GGA (default = LDA)
XC.authors            PBE           # CA (Ceperley-Aldr) = PZ
                                    #    (Perdew-Zunger) - LDA - Default
                                    # PW92 (Perdew-Wang-92) - LDA
                                    # PBE (Perdew-Burke-Ernzerhof) - GGA
MeshCutoff            200.000000    Ry      # Default: 50.0 Ry ~ 0.444 Bohr
                                    #         100.0 Ry ~ 0.314 Bohr
MaxSCFIterations      500           # Default: 50
DM.MixingWeight       0.05          # Default: 0.25
DM.NumberPulay        10            # Default: 0
DM.PulayOnFile        F             # SystemLabel.P1, SystemLabel.P2
DM.Tolerance          1.d-4         # Default: 1.d-4
DM.UseSaveDM          .true.        # because of the bug
SCFMustConverge       .true.
NeglNonOverlapInt     F             # Default: F
#(5) Eigenvalue problem: order-N or diagonalization
SolutionMethod        Diagon        # or Transiesta
ElectronicTemperature 300.0 K       # Default: 300.0 K
#(6) Molecular dynamics and relaxations
#MD.TypeOfRun          CG            # Type of dynamics:
#MD.VariableCell       F
#MD.NumCGsteps         0           # 0 for single-point / 100 for gopt
#MD.MaxCGDispl         0.2 Bohr      # Default: 0.2 Bohr
#MD.MaxForceTol        0.02 eV/Ang   # Default: 0.04 eV/Ang
#MD.MaxStressTol       1.0 GPa       # Default: 1.0 GPa
# Geometry Constraints
#%block GeometryConstraints
#	position from 1 to 44
#%endblock GeometryConstraints
************************** End of input data file *****************************

reinit: -----------------------------------------------------------------------
reinit: System Name: GRP_doping
reinit: -----------------------------------------------------------------------
reinit: System Label: GRP_doping                                                  
reinit: -----------------------------------------------------------------------

initatom: Reading input for the pseudopotentials and atomic orbitals ----------
 Species number:            1  Label: N Atomic number:           7
 Species number:            2  Label: C Atomic number:           6
Ground state valence configuration:   2s02  2p03
Reading pseudopotential information in formatted form from N.psf

Valence configuration for pseudopotential generation:
2s( 2.00) rc: 1.48
2p( 3.00) rc: 1.48
3d( 0.00) rc: 1.48
4f( 0.00) rc: 1.48
Ground state valence configuration:   2s02  2p02
Reading pseudopotential information in formatted form from C.psf

Valence configuration for pseudopotential generation:
2s( 2.00) rc: 1.54
2p( 2.00) rc: 1.54
3d( 0.00) rc: 1.54
4f( 0.00) rc: 1.54
For N, standard SIESTA heuristics set lmxkb to 3
 (one more than the basis l, including polarization orbitals).
Use PS.lmax or PS.KBprojectors blocks to override.
For C, standard SIESTA heuristics set lmxkb to 3
 (one more than the basis l, including polarization orbitals).
Use PS.lmax or PS.KBprojectors blocks to override.

<basis_specs>
===============================================================================
N                    Z=   7    Mass=  14.010        Charge= 0.17977+309
Lmxo=1 Lmxkb= 3    BasisType=split      Semic=F
L=0  Nsemic=0  Cnfigmx=2
          n=1  nzeta=2  polorb=0
            splnorm:   0.15000    
               vcte:    0.0000    
               rinn:    0.0000    
                rcs:    0.0000      0.0000    
            lambdas:    1.0000      1.0000    
L=1  Nsemic=0  Cnfigmx=2
          n=1  nzeta=2  polorb=1
            splnorm:   0.15000    
               vcte:    0.0000    
               rinn:    0.0000    
                rcs:    0.0000      0.0000    
            lambdas:    1.0000      1.0000    
-------------------------------------------------------------------------------
L=0  Nkbl=1  erefs: 0.17977+309
L=1  Nkbl=1  erefs: 0.17977+309
L=2  Nkbl=1  erefs: 0.17977+309
L=3  Nkbl=1  erefs: 0.17977+309
===============================================================================
</basis_specs>

atom: Called for N                     (Z =   7)

read_vps: Pseudopotential generation method:
read_vps: ATM3      Troullier-Martins                       
Total valence charge:    5.00000

read_vps: Pseudopotential includes a core correction:
read_vps: Pseudo-core for xc-correction

xc_check: Exchange-correlation functional:
xc_check: GGA Perdew, Burke & Ernzerhof 1996
V l=0 = -2*Zval/r beyond r=  1.4606
V l=1 = -2*Zval/r beyond r=  1.4606
V l=2 = -2*Zval/r beyond r=  1.4606
V l=3 = -2*Zval/r beyond r=  1.4606
All V_l potentials equal beyond r=  1.4606
This should be close to max(r_c) in ps generation
All pots = -2*Zval/r beyond r=  1.4606

VLOCAL1: 99.0% of the norm of Vloc inside     20.347 Ry
VLOCAL1: 99.9% of the norm of Vloc inside     46.372 Ry
atom: Maximum radius for 4*pi*r*r*local-pseudopot. charge    1.76189
atom: Maximum radius for r*vlocal+2*Zval:    1.53550
GHOST: No ghost state for L =  0
GHOST: No ghost state for L =  1
GHOST: No ghost state for L =  2
GHOST: No ghost state for L =  3

KBgen: Kleinman-Bylander projectors: 
   l= 0   rc=  1.634559   el= -1.363963   Ekb=  5.296955   kbcos=  0.335621
   l= 1   rc=  1.614250   el= -0.521451   Ekb= -5.259161   kbcos= -0.433408
   l= 2   rc=  1.718383   el=  0.001991   Ekb= -1.271464   kbcos= -0.007566
   l= 3   rc=  1.761893   el=  0.003093   Ekb= -0.494769   kbcos= -0.001015

KBgen: Total number of  Kleinman-Bylander projectors:   16
atom: -------------------------------------------------------------------------

atom: SANKEY-TYPE ORBITALS:
atom: Selected multiple-zeta basis: split     

SPLIT: Orbitals with angular momentum L= 0

SPLIT: Basis orbitals for state 2s

SPLIT: PAO cut-off radius determined from an
SPLIT: energy shift=  0.007350 Ry

   izeta = 1
                 lambda =    1.000000
                     rc =    4.071465
                 energy =   -1.356470
                kinetic =    1.176977
    potential(screened) =   -2.533447
       potential(ionic) =   -8.057990

   izeta = 2
                 rmatch =    2.905100
              splitnorm =    0.150000
                 energy =   -1.158343
                kinetic =    1.813009
    potential(screened) =   -2.971352
       potential(ionic) =   -8.901931

SPLIT: Orbitals with angular momentum L= 1

SPLIT: Basis orbitals for state 2p

SPLIT: PAO cut-off radius determined from an
SPLIT: energy shift=  0.007350 Ry

   izeta = 1
                 lambda =    1.000000
                     rc =    4.972977
                 energy =   -0.513884
                kinetic =    3.441732
    potential(screened) =   -3.955616
       potential(ionic) =   -9.287901

   izeta = 2
                 rmatch =    3.054066
              splitnorm =    0.150000
                 energy =   -0.318226
                kinetic =    5.125348
    potential(screened) =   -5.443573
       potential(ionic) =  -11.380999

POLgen: Perturbative polarization orbital with L=  2

POLgen: Polarization orbital for state 2p

   izeta = 1
                     rc =    4.972977
                 energy =    1.607437
                kinetic =    3.268125
    potential(screened) =   -1.660688
       potential(ionic) =   -5.973652
atom: Total number of Sankey-type orbitals: 13

atm_pop: Valence configuration (for local Pseudopot. screening):
 2s( 2.00)                                                            
 2p( 3.00)                                                            
Vna: chval, zval:    5.00000   5.00000

Vna:  Cut-off radius for the neutral-atom potential:   4.972977
comcore: Pseudo-core radius Rcore=  1.554824

atom: _________________________________________________________________________

<basis_specs>
===============================================================================
C                    Z=   6    Mass=  12.010        Charge= 0.17977+309
Lmxo=1 Lmxkb= 3    BasisType=split      Semic=F
L=0  Nsemic=0  Cnfigmx=2
          n=1  nzeta=2  polorb=0
            splnorm:   0.15000    
               vcte:    0.0000    
               rinn:    0.0000    
                rcs:    0.0000      0.0000    
            lambdas:    1.0000      1.0000    
L=1  Nsemic=0  Cnfigmx=2
          n=1  nzeta=2  polorb=1
            splnorm:   0.15000    
               vcte:    0.0000    
               rinn:    0.0000    
                rcs:    0.0000      0.0000    
            lambdas:    1.0000      1.0000    
-------------------------------------------------------------------------------
L=0  Nkbl=1  erefs: 0.17977+309
L=1  Nkbl=1  erefs: 0.17977+309
L=2  Nkbl=1  erefs: 0.17977+309
L=3  Nkbl=1  erefs: 0.17977+309
===============================================================================
</basis_specs>

atom: Called for C                     (Z =   6)

read_vps: Pseudopotential generation method:
read_vps: ATM3      Troullier-Martins                       
Total valence charge:    4.00000

read_vps: Pseudopotential includes a core correction:
read_vps: Pseudo-core for xc-correction

xc_check: Exchange-correlation functional:
xc_check: GGA Perdew, Burke & Ernzerhof 1996
V l=0 = -2*Zval/r beyond r=  1.5227
V l=1 = -2*Zval/r beyond r=  1.5227
V l=2 = -2*Zval/r beyond r=  1.5227
V l=3 = -2*Zval/r beyond r=  1.5038
All V_l potentials equal beyond r=  1.5227
This should be close to max(r_c) in ps generation
All pots = -2*Zval/r beyond r=  1.5227

VLOCAL1: 99.0% of the norm of Vloc inside     18.722 Ry
VLOCAL1: 99.9% of the norm of Vloc inside     42.668 Ry
atom: Maximum radius for 4*pi*r*r*local-pseudopot. charge    1.83678
atom: Maximum radius for r*vlocal+2*Zval:    1.58088
GHOST: No ghost state for L =  0
GHOST: No ghost state for L =  1
GHOST: No ghost state for L =  2
GHOST: No ghost state for L =  3

KBgen: Kleinman-Bylander projectors: 
   l= 0   rc=  1.704034   el= -1.009801   Ekb=  5.335044   kbcos=  0.316824
   l= 1   rc=  1.704034   el= -0.388707   Ekb= -3.785862   kbcos= -0.366464
   l= 2   rc=  1.791422   el=  0.001971   Ekb= -0.970471   kbcos= -0.009212
   l= 3   rc=  1.859892   el=  0.003065   Ekb= -0.399525   kbcos= -0.001223

KBgen: Total number of  Kleinman-Bylander projectors:   16
atom: -------------------------------------------------------------------------

atom: SANKEY-TYPE ORBITALS:
atom: Selected multiple-zeta basis: split     

SPLIT: Orbitals with angular momentum L= 0

SPLIT: Basis orbitals for state 2s

SPLIT: PAO cut-off radius determined from an
SPLIT: energy shift=  0.007350 Ry

   izeta = 1
                 lambda =    1.000000
                     rc =    4.632753
                 energy =   -1.002270
                kinetic =    0.855760
    potential(screened) =   -1.858031
       potential(ionic) =   -5.417575

   izeta = 2
                 rmatch =    3.431921
              splitnorm =    0.150000
                 energy =   -0.867111
                kinetic =    1.300804
    potential(screened) =   -2.167915
       potential(ionic) =   -5.962684

SPLIT: Orbitals with angular momentum L= 1

SPLIT: Basis orbitals for state 2p

SPLIT: PAO cut-off radius determined from an
SPLIT: energy shift=  0.007350 Ry

   izeta = 1
                 lambda =    1.000000
                     rc =    5.658549
                 energy =   -0.381140
                kinetic =    2.399701
    potential(screened) =   -2.780841
       potential(ionic) =   -6.206085

   izeta = 2
                 rmatch =    3.653288
              splitnorm =    0.150000
                 energy =   -0.249149
                kinetic =    3.542762
    potential(screened) =   -3.791911
       potential(ionic) =   -7.581078

POLgen: Perturbative polarization orbital with L=  2

POLgen: Polarization orbital for state 2p

   izeta = 1
                     rc =    5.658549
                 energy =    1.109913
                kinetic =    2.304789
    potential(screened) =   -1.194876
       potential(ionic) =   -4.013592
atom: Total number of Sankey-type orbitals: 13

atm_pop: Valence configuration (for local Pseudopot. screening):
 2s( 2.00)                                                            
 2p( 2.00)                                                            
Vna: chval, zval:    4.00000   4.00000

Vna:  Cut-off radius for the neutral-atom potential:   5.658549
comcore: Pseudo-core radius Rcore=  1.791422

atom: _________________________________________________________________________

prinput: Basis input ----------------------------------------------------------

PAO.BasisType split     

%block ChemicalSpeciesLabel
    1    7 N                       # Species index, atomic number, species label
    2    6 C                       # Species index, atomic number, species label
%endblock ChemicalSpeciesLabel

%block PAO.Basis                 # Define Basis set
N                     2                    # Species label, number of l-shells
 n=2   0   2                         # n, l, Nzeta 
   4.071      2.905   
   1.000      1.000   
 n=2   1   2 P   1                   # n, l, Nzeta, Polarization, NzetaPol
   4.973      3.054   
   1.000      1.000   
C                     2                    # Species label, number of l-shells
 n=2   0   2                         # n, l, Nzeta 
   4.633      3.432   
   1.000      1.000   
 n=2   1   2 P   1                   # n, l, Nzeta, Polarization, NzetaPol
   5.659      3.653   
   1.000      1.000   
%endblock PAO.Basis

prinput: ----------------------------------------------------------------------

coor:   Atomic-coordinates input format  =     Cartesian coordinates
coor:                                          (in Angstroms)

siesta: Atomic coordinates (Bohr) and species
siesta:      2.23554   1.32097   0.00000  1        1
siesta:     11.54782   1.32097   0.00000  1        2
siesta:     20.86199   1.32097   0.00000  1        3
siesta:      6.89205   9.38661   0.00000  1        4
siesta:     16.20434   9.38661   0.00000  1        5
siesta:     11.54857  17.45226   0.00000  1        6
siesta:     25.51851   9.38661   0.00000  1        7
siesta:     20.86274  17.45226   0.00000  1        8
siesta:     37.16131  21.48508   0.00000  1        9
siesta:      4.56367   2.66461   0.00000  2       10
siesta:     32.50328  21.48508   0.00000  2       11
siesta:     34.83141  22.82873   0.00000  2       12
siesta:     34.83116  17.45226   0.00000  2       13
siesta:     37.15930  18.79590   0.00000  2       14
siesta:     32.50291  13.41944   0.00000  2       15
siesta:     34.83104  14.76308   0.00000  2       16
siesta:     30.17465   9.38661   0.00000  2       17
siesta:     32.50278  10.73026   0.00000  2       18
siesta:     27.84639   5.35379   0.00000  2       19
siesta:     30.17453   6.69743   0.00000  2       20
siesta:     27.84714  21.48508   0.00000  2       21
siesta:     30.17527  22.82873   0.00000  2       22
siesta:      6.89168   1.32097   0.00000  2       23
siesta:      9.21981   2.66461   0.00000  2       24
siesta:     13.87595   2.66461   0.00000  2       25
siesta:     16.20396   1.32097   0.00000  2       26
siesta:     18.53210   2.66461   0.00000  2       27
siesta:     23.19013   2.66461   0.00000  2       28
siesta:     25.51813   1.32097   0.00000  2       29
siesta:     27.84627   2.66461   0.00000  2       30
siesta:      4.56380   5.35379   0.00000  2       31
siesta:      6.89193   6.69743   0.00000  2       32
siesta:      9.21994   5.35379   0.00000  2       33
siesta:     11.54807   6.69743   0.00000  2       34
siesta:     13.87608   5.35379   0.00000  2       35
siesta:     16.20421   6.69743   0.00000  2       36
siesta:     18.53411   5.35379   0.00000  2       37
siesta:     20.86224   6.69743   0.00000  2       38
siesta:     23.19025   5.35379   0.00000  2       39
siesta:     25.51838   6.69743   0.00000  2       40
siesta:      9.22019  10.73026   0.00000  2       41
siesta:     11.54820   9.38661   0.00000  2       42
siesta:     13.87633  10.73026   0.00000  2       43
siesta:     18.53247  10.73026   0.00000  2       44
siesta:     20.86237   9.38661   0.00000  2       45
siesta:     23.19050  10.73026   0.00000  2       46
siesta:      9.22031  13.41944   0.00000  2       47
siesta:     11.54845  14.76308   0.00000  2       48
siesta:     13.87645  13.41944   0.00000  2       49
siesta:     16.20459  14.76308   0.00000  2       50
siesta:     18.53448  13.41944   0.00000  2       51
siesta:     20.86262  14.76308   0.00000  2       52
siesta:     13.87670  18.79590   0.00000  2       53
siesta:     16.20471  17.45226   0.00000  2       54
siesta:     18.53284  18.79590   0.00000  2       55
siesta:     13.87683  21.48508   0.00000  2       56
siesta:     16.20496  22.82873   0.00000  2       57
siesta:     18.53486  21.48508   0.00000  2       58
siesta:     20.86299  22.82873   0.00000  2       59
siesta:     27.84664  10.73026   0.00000  2       60
siesta:     23.19063  13.41944   0.00000  2       61
siesta:     25.51876  14.76308   0.00000  2       62
siesta:     23.19088  18.79590   0.00000  2       63
siesta:     27.84677  13.41944   0.00000  2       64
siesta:     30.17490  14.76308   0.00000  2       65
siesta:     25.51888  17.45226   0.00000  2       66
siesta:     27.84702  18.79590   0.00000  2       67
siesta:     23.19100  21.48508   0.00000  2       68
siesta:     25.51913  22.82873   0.00000  2       69
siesta:     30.17503  17.45226   0.00000  2       70
siesta:     32.50316  18.79590   0.00000  2       71
siesta:     39.48945  22.82873   0.00000  2       72

siesta: System type = slab      

initatomlists: Number of atoms, orbitals, and projectors:     72   936  1152

siesta: ******************** Simulation parameters ****************************
siesta:
siesta: The following are some of the parameters of the simulation.
siesta: A complete list of the parameters used, including default values,
siesta: can be found in file out.fdf
siesta:
redata: Non-Collinear-spin run           =     F
redata: SpinPolarized (Up/Down) run      =     F
redata: Number of spin components        =     1
redata: Long output                      =     F
redata: Number of Atomic Species         =        2
redata: Charge density info will appear in .RHO file
redata: Write Mulliken Pop.              =     NO
redata: Mesh Cutoff                      =   200.0000  Ry
redata: Net charge of the system         =     0.0000 |e|
redata: Max. number of SCF Iter          =      500
redata: SCF convergence failure will abort job
redata: Performing Pulay mixing using    =    10 iterations
redata: Mix DM in first SCF step ?       =     F
redata: Write Pulay info on disk?        =     F
redata: Discard 1st Pulay DM after  kick =     F
redata: New DM Mixing Weight             =     0.0500
redata: New DM Occupancy tolerance       = 0.000000000001
redata: No kicks to SCF
redata: DM Mixing Weight for Kicks       =     0.5000
redata: DM Tolerance for SCF             =     0.000100
redata: Require Energy convergence for SCF =     F
redata: DM Energy tolerance for SCF      =     0.000100 eV
redata: Require Harris convergence for SCF =     F
redata: DM Harris energy tolerance for SCF =     0.000100 eV
redata: Using Saved Data (generic)   =     F
redata: Use continuation files for DM    =     T
redata: Neglect nonoverlap interactions  =     F
redata: Method of Calculation            =     Diagonalization
redata: Divide and Conquer               =     T
redata: Electronic Temperature           =     0.0019  Ry
redata: Fix the spin of the system       =     F
redata: Dynamics option                  =     Verlet MD run
redata: Initial MD time step             =        1
redata:   Final MD time step             =        1
redata: Length of MD time step           =     1.0000  fs
redata: Initial Temperature of MD run    =     0.0000  K
redata: Perform a MD quench              =     F
redata: ***********************************************************************
Total number of electrons:   297.000000
Total ionic charge:   297.000000

* ProcessorY, Blocksize:    2  24

k-point displ. along   1 input, could be:     0.00    0.50
k-point displ. along   2 input, could be:     0.00    0.50
 Kpoints in:          364 . Kpoints trimmed:          352

siesta: k-grid: Number of k-points =   352
siesta: k-grid: Cutoff (effective) =     5.000 Ang
siesta: k-grid: Supercell and displacements
siesta: k-grid:   26   0   0      0.000
siesta: k-grid:    0  26   0      0.000
siesta: k-grid:    0   0   1      0.000
Naive supercell factors:     2    2    2

superc: Internal auxiliary supercell:     2 x     2 x     2  =       8
superc: Number of atoms, orbitals, and projectors:    576   7488   9216

* Maximum dynamic memory allocated =     6 MB

siesta:                 ==============================
                            Begin MD step =      1
                        ==============================

superc: Internal auxiliary supercell:     2 x     2 x     2  =       8
superc: Number of atoms, orbitals, and projectors:    576   7488   9216

outcell: Unit cell vectors (Ang):
       14.785000    0.000000    0.000000
        7.393000   12.805052    0.000000
        0.000000    0.000000   10.000000

outcell: Cell vector modules (Ang)   :   14.785000   14.786000   10.000000
outcell: Cell angles (23,13,12) (deg):     90.0000     90.0000     60.0000
outcell: Cell volume (Ang**3)        :   1893.2269
New_DM. Step:     1
Initializing Density Matrix...

iodm: Reading Density Matrix from files
 Read DM has different structure. Fixing...

InitMesh: MESH =   120 x   120 x    90 =     1296000
InitMesh: Mesh cutoff (required, used) =   200.000   223.865 Ry

* Maximum dynamic memory allocated =   187 MB

stepf: Fermi-Dirac step function

siesta: Program's energy decomposition (eV):
siesta: Ebs     =     -4356.599562
siesta: Eions   =     19849.732669
siesta: Ena     =      4064.201049
siesta: Ekin    =      8471.370142
siesta: Enl     =      -987.262445
siesta: DEna    =      -307.361477
siesta: DUscf   =       169.601196
siesta: DUext   =         0.000000
siesta: Exc     =     -4275.789091
siesta: eta*DQ  =         0.000000
siesta: Emadel  =         0.000000
siesta: Emeta   =         0.000000
siesta: Emolmec =         0.000000
siesta: Ekinion =         0.000000
siesta: Eharris =    -13190.854865
siesta: Etot    =    -12714.973294
siesta: FreeEng =    -12714.973294

siesta: iscf   Eharris(eV)      E_KS(eV)   FreeEng(eV)   dDmax  Ef(eV)
siesta:    1   -13190.8549   -12714.9733   -12714.9733  2.7964 -2.7705
timer: Routine,Calls,Time,% = IterSCF        1    6633.552  99.82
elaps: Routine,Calls,Wall,% = IterSCF        1     830.171  99.82
siesta:    2   -30652.0890    -9631.8069    -9631.8404137.3842-23.0851
siesta:    3   -12939.4940   -12729.5614   -12729.5955  1.0616 -3.0060
siesta:    4   -12873.6531   -12737.8975   -12737.9324  1.0069 -3.0720
siesta:    5   -12792.7580   -12747.1035   -12747.1795  0.6146 -2.9824
siesta:    6   -12765.7464   -12748.5094   -12748.5484  0.5745 -2.9743
siesta:    7   -12743.2296   -12743.7160   -12743.7694  0.4760 -2.9939
siesta:    8   -12741.9182   -12741.3541   -12741.4024  0.4183 -3.0687
siesta:    9   -12743.0227   -12736.8163   -12736.8546  0.2127 -3.4406
siesta:   10   -12742.3610   -12736.9433   -12736.9703  0.1223 -3.6207
siesta:   11   -12740.5647   -12736.9250   -12736.9654  0.0819 -3.5986
siesta:   12   -12739.6420   -12737.0570   -12737.1035  0.0719 -3.5445
siesta:   13   -12739.6003   -12737.4610   -12737.5110  0.0797 -3.5386
siesta:   14   -12739.5386   -12737.9451   -12737.9951  0.0499 -3.5075
siesta:   15   -12739.4926   -12738.5179   -12738.5618  0.0266 -3.4605
siesta:   16   -12739.4803   -12738.6483   -12738.6963  0.0134 -3.4441
siesta:   17   -12739.4618   -12738.9131   -12738.9595  0.0078 -3.4356
siesta:   18   -12739.4545   -12739.1150   -12739.1615  0.0044 -3.4321
siesta:   19   -12739.4538   -12739.1425   -12739.1893  0.0038 -3.4321
siesta:   20   -12739.4532   -12739.2939   -12739.3406  0.0029 -3.4340
siesta:   21   -12739.4533   -12739.3964   -12739.4432  0.0025 -3.4338
siesta:   22   -12739.4531   -12739.4454   -12739.4921  0.0015 -3.4344
siesta:   23   -12739.4529   -12739.4682   -12739.5150  0.0009 -3.4347
siesta:   24   -12739.4528   -12739.4740   -12739.5208  0.0004 -3.4345
siesta:   25   -12739.4527   -12739.4785   -12739.5253  0.0003 -3.4343
siesta:   26   -12739.4527   -12739.4800   -12739.5268  0.0002 -3.4343
siesta:   27   -12739.4528   -12739.4744   -12739.5212  0.0001 -3.4347
siesta:   28   -12739.4527   -12739.4716   -12739.5184  0.0001 -3.4347

siesta: E_KS(eV) =           -12739.4657

siesta: E_KS - E_eggbox =    -12739.4657

siesta: Atomic forces (eV/Ang):
----------------------------------------
   Tot    0.192942   -0.339374    0.000000
----------------------------------------
   Max    0.688551
   Res    0.230032    sqrt( Sum f_i^2 / 3N )
----------------------------------------
   Max    0.688551    constrained

Stress-tensor-Voigt (kbar):        0.54        1.24        0.15       -0.33        0.00        0.00
(Free)E + p*V (eV/cell)   -12740.2705
Target enthalpy (eV/cell)   -12739.5124

siesta: Stress tensor (static) (eV/Ang**3):
         0.000337   -0.000204    0.000000
        -0.000204    0.000773    0.000000
         0.000000    0.000000    0.000092

siesta: Pressure (static):         -0.64151076  kBar

siesta: Stress tensor (total) (eV/Ang**3):
         0.000337   -0.000204    0.000000
        -0.000204    0.000773    0.000000
         0.000000    0.000000    0.000092

siesta: Pressure (total):         -0.64151076  kBar

siesta: Temp_ion =       0.000 K

* Maximum dynamic memory allocated =   203 MB

siesta: Program's energy decomposition (eV):
siesta: Ebs     =     -4186.377436
siesta: Eions   =     19849.732669
siesta: Ena     =      4064.201049
siesta: Ekin    =      8579.985060
siesta: Enl     =     -1058.946869
siesta: DEna    =      -247.218134
siesta: DUscf   =        22.438855
siesta: DUext   =         0.000000
siesta: Exc     =     -4250.192946
siesta: eta*DQ  =         0.000000
siesta: Emadel  =         0.000000
siesta: Emeta   =         0.000000
siesta: Emolmec =         0.000000
siesta: Ekinion =         0.000000
siesta: Eharris =    -12739.452750
siesta: Etot    =    -12739.465654
siesta: FreeEng =    -12739.512413

siesta: Final energy (eV):
siesta:  Band Struct. =   -4186.377436
siesta:       Kinetic =    8579.985060
siesta:       Hartree =   24799.416125
siesta:    Ext. field =       0.000000
siesta:   Exch.-corr. =   -4250.192946
siesta:  Ion-electron =  -57576.627739
siesta:       Ion-ion =   15707.953845
siesta:       Ekinion =       0.000000
siesta:         Total =  -12739.465654

siesta: Atomic forces (eV/Ang):
siesta:      1    0.208986    0.104952    0.000000
siesta:      2   -0.040566    0.003525    0.000000
siesta:      3    0.294471   -0.609663    0.000000
siesta:      4   -0.001365   -0.069468    0.000000
siesta:      5   -0.055685   -0.049111    0.000000
siesta:      6   -0.348836    0.551316    0.000000
siesta:      7    0.062829   -0.086436    0.000000
siesta:      8   -0.050733    0.073335    0.000000
siesta:      9    0.102497    0.065190    0.000000
siesta:     10   -0.398545   -0.233959    0.000000
siesta:     11    0.370794    0.552075    0.000000
siesta:     12    0.395831    0.157337    0.000000
siesta:     13    0.667545    0.025931    0.000000
siesta:     14    0.329480    0.245327    0.000000
siesta:     15    0.549600   -0.207512    0.000000
siesta:     16   -0.309101    0.322860    0.000000
siesta:     17    0.045341   -0.257208    0.000000
siesta:     18    0.445877   -0.169891    0.000000
siesta:     19    0.376985    0.186406    0.000000
siesta:     20   -0.118032   -0.124249    0.000000
siesta:     21    0.106850    0.565096    0.000000
siesta:     22    0.113095   -0.421300    0.000000
siesta:     23    0.057128   -0.300460    0.000000
siesta:     24    0.262153   -0.122638    0.000000
siesta:     25   -0.142713   -0.412774    0.000000
siesta:     26   -0.042282    0.179757    0.000000
siesta:     27    0.088916   -0.404966    0.000000
siesta:     28   -0.043734    0.359476    0.000000
siesta:     29   -0.317529   -0.662921    0.000000
siesta:     30    0.196315   -0.330640    0.000000
siesta:     31   -0.217965    0.175623    0.000000
siesta:     32    0.022818    0.284039    0.000000
siesta:     33    0.254947    0.137888    0.000000
siesta:     34    0.032698    0.021181    0.000000
siesta:     35   -0.202750    0.340270    0.000000
siesta:     36   -0.009000    0.084618    0.000000
siesta:     37    0.208745    0.226905    0.000000
siesta:     38    0.064572    0.130683    0.000000
siesta:     39   -0.342817   -0.132688    0.000000
siesta:     40   -0.038322    0.496485    0.000000
siesta:     41   -0.430914    0.087113    0.000000
siesta:     42    0.203943   -0.371466    0.000000
siesta:     43    0.064924   -0.078929    0.000000
siesta:     44    0.029605   -0.011821    0.000000
siesta:     45   -0.201099   -0.414271    0.000000
siesta:     46    0.445489    0.014001    0.000000
siesta:     47    0.148590   -0.160555    0.000000
siesta:     48   -0.327059    0.252371    0.000000
siesta:     49    0.326960    0.089246    0.000000
siesta:     50    0.175763   -0.012786    0.000000
siesta:     51   -0.479907    0.050683    0.000000
siesta:     52    0.229943    0.384072    0.000000
siesta:     53    0.289316   -0.216103    0.000000
siesta:     54   -0.273895   -0.251253    0.000000
siesta:     55    0.450003   -0.282561    0.000000
siesta:     56   -0.688551    0.026692    0.000000
siesta:     57   -0.153237    0.323741    0.000000
siesta:     58    0.319153    0.229441    0.000000
siesta:     59   -0.176940   -0.036022    0.000000
siesta:     60   -0.553560   -0.215995    0.000000
siesta:     61    0.022018    0.001785    0.000000
siesta:     62    0.321479    0.191484    0.000000
siesta:     63   -0.472022   -0.368136    0.000000
siesta:     64   -0.510466   -0.185227    0.000000
siesta:     65   -0.058594   -0.311184    0.000000
siesta:     66   -0.401258   -0.374592    0.000000
siesta:     67   -0.301180    0.106992    0.000000
siesta:     68   -0.189285    0.151265    0.000000
siesta:     69    0.065794    0.471868    0.000000
siesta:     70    0.237604    0.124361    0.000000
siesta:     71   -0.144090   -0.081885    0.000000
siesta:     72   -0.354084   -0.166095    0.000000
siesta: ----------------------------------------
siesta:    Tot    0.192942   -0.339374    0.000000

siesta: Stress tensor (static) (eV/Ang**3):
siesta:     0.000337   -0.000204    0.000000
siesta:    -0.000204    0.000773    0.000000
siesta:     0.000000    0.000000    0.000092

siesta: Cell volume =       1893.226895 Ang**3

siesta: Pressure (static):
siesta:                Solid            Molecule  Units
siesta:          -0.00000436         -0.00006882  Ry/Bohr**3
siesta:          -0.00040040         -0.00631837  eV/Ang**3
siesta:          -0.64151076        -10.12325402  kBar
(Free)E+ p_basis*V_orbitals  =      -12710.061467
(Free)Eharris+ p_basis*V_orbitals  =      -12710.042620

siesta: Electric dipole (a.u.)  =    0.000000    0.000000    0.000000
siesta: Electric dipole (Debye) =    0.000000    0.000000    0.000000

* Maximum dynamic memory allocated : Node    0 =   203 MB
* Maximum dynamic memory allocated : Node    1 =    74 MB
* Maximum dynamic memory allocated : Node    2 =    76 MB
* Maximum dynamic memory allocated : Node    3 =   193 MB
* Maximum dynamic memory allocated : Node    4 =   203 MB
* Maximum dynamic memory allocated : Node    5 =    74 MB
* Maximum dynamic memory allocated : Node    6 =    76 MB
* Maximum dynamic memory allocated : Node    7 =   187 MB

* Maximum memory occured during matrixMtoO                    

timer: CPU execution times:
timer:  Routine       Calls   Time/call    Tot.time        %
timer:  siesta            1  183736.507  183736.507   100.00
timer:  Setup             1       3.091       3.091     0.00
timer:  bands             1       0.006       0.006     0.00
timer:  writewave         1       0.018       0.018     0.00
timer:  KSV_init          1       0.000       0.000     0.00
timer:  IterMD            1  183725.188  183725.188    99.99
timer:  hsparse           1       0.256       0.256     0.00
timer:  overlap           1       6.335       6.335     0.00
timer:  IterSCF          28    6555.618  183557.304    99.90
timer:  kinefsm           2       3.270       6.539     0.00
timer:  nlefsm            2      18.832      37.664     0.02
timer:  DHSCF            29      87.979    2551.394     1.39
timer:  DHSCF1            1       0.758       0.758     0.00
timer:  DHSCF2            1      33.075      33.075     0.02
timer:  REORD           234       0.010       2.297     0.00
timer:  POISON           30       2.250      67.490     0.04
timer:  DHSCF3           29      85.686    2484.881     1.35
timer:  rhoofd           29      16.362     474.485     0.26
timer:  cellXC           29       3.458     100.274     0.05
timer:  vmat             29      43.559    1263.224     0.69
timer:  MolMec            2       0.000       0.000     0.00
timer:  diagon           28    6466.399  181059.182    98.54
timer:  c-eigval       9856       6.693   65966.596    35.90
timer:  c-buildHS      9856       0.117    1156.581     0.63
timer:  cdiag         19712       6.864  135297.651    73.64
timer:  cdiag1        19712       0.426    8400.132     4.57
timer:  cdiag2        19712       1.909   37639.481    20.49
timer:  cdiag3        19712       3.964   78137.444    42.53
timer:  cdiag4        19712       0.204    4016.159     2.19
timer:  c-eigvec       9856       7.224   71200.106    38.75
timer:  c-buildD       9856       4.445   43808.845    23.84
timer:  DHSCF4            1      31.148      31.148     0.02
timer:  dfscf             1      29.289      29.289     0.02
timer:  overfsm           1       0.373       0.373     0.00
timer:  optical           1       7.199       7.199     0.00
  

elaps: ELAPSED times:
elaps:  Routine       Calls   Time/call    Tot.time        %
elaps:  siesta            1   22993.316   22993.316   100.00
elaps:  Setup             1       0.385       0.385     0.00
elaps:  bands             1       0.001       0.001     0.00
elaps:  writewave         1       0.002       0.002     0.00
elaps:  KSV_init          1       0.000       0.000     0.00
elaps:  IterMD            1   22991.901   22991.901    99.99
elaps:  hsparse           1       0.031       0.031     0.00
elaps:  overlap           1       0.967       0.967     0.00
elaps:  IterSCF          28     820.389   22970.900    99.90
elaps:  kinefsm           2       0.496       0.992     0.00
elaps:  nlefsm            2       2.340       4.680     0.02
elaps:  DHSCF            29      11.117     322.398     1.40
elaps:  DHSCF1            1       0.098       0.098     0.00
elaps:  DHSCF2            1       4.133       4.133     0.02
elaps:  REORD           234       0.001       0.300     0.00
elaps:  POISON           30       0.282       8.461     0.04
elaps:  DHSCF3           29      10.720     310.884     1.35
elaps:  rhoofd           29       3.638     105.489     0.46
elaps:  cellXC           29       0.432      12.525     0.05
elaps:  vmat             29       5.450     158.036     0.69
elaps:  MolMec            2       0.000       0.000     0.00
elaps:  diagon           28     809.247   22658.912    98.55
elaps:  c-eigval       9856       0.837    8253.519    35.90
elaps:  c-buildHS      9856       0.016     157.680     0.69
elaps:  cdiag         19712       0.847   16696.037    72.61
elaps:  cdiag1        19712       0.053    1046.405     4.55
elaps:  cdiag2        19712       0.239    4709.533    20.48
elaps:  cdiag3        19712       0.497    9789.738    42.58
elaps:  cdiag4        19712       0.026     505.339     2.20
elaps:  c-eigvec       9856       0.884    8712.388    37.89
elaps:  c-buildD       9856       0.576    5680.843    24.71
elaps:  DHSCF4            1       7.075       7.075     0.03
elaps:  dfscf             1       6.677       6.677     0.03
elaps:  overfsm           1       0.047       0.047     0.00
elaps:  optical           1       0.000       0.000     0.00
  
>> End of run:  29-NOV-2015   6:37:56
