Siesta Version:                                        siesta-3.2-pl-3
Architecture  : x86_64-unknown-linux-gnu--unknown
Compiler flags: mpiifort -g -O2 -fPIC -xSSE4.1 -fp-model source -shared-intel 
PARALLEL version

* Running on    8 nodes in parallel
>> Start of run:  28-NOV-2015  19:52:48

                           ***********************       
                           *  WELCOME TO SIESTA  *       
                           ***********************       

reinit: Reading from standard input
************************** Dump of input data file ****************************
#(1) General system descriptors
SystemName            GRP_doping    # Descriptive name of the system
SystemLabel           GRP_doping    # Short name for naming files
%include STRUCT.fdf
%include KPT.fdf
%include BASIS.fdf
#%include TS.fdf # for transiesta calculation
#(4) DFT, Grid, SCF
XC.functional         GGA           # LDA or GGA (default = LDA)
XC.authors            PBE           # CA (Ceperley-Aldr) = PZ
                                    #    (Perdew-Zunger) - LDA - Default
                                    # PW92 (Perdew-Wang-92) - LDA
                                    # PBE (Perdew-Burke-Ernzerhof) - GGA
MeshCutoff            200.000000    Ry      # Default: 50.0 Ry ~ 0.444 Bohr
                                    #         100.0 Ry ~ 0.314 Bohr
MaxSCFIterations      500           # Default: 50
DM.MixingWeight       0.05          # Default: 0.25
DM.NumberPulay        10            # Default: 0
DM.PulayOnFile        F             # SystemLabel.P1, SystemLabel.P2
DM.Tolerance          1.d-4         # Default: 1.d-4
DM.UseSaveDM          .true.        # because of the bug
SCFMustConverge       .true.
NeglNonOverlapInt     F             # Default: F
#(5) Eigenvalue problem: order-N or diagonalization
SolutionMethod        Diagon        # or Transiesta
ElectronicTemperature 300.0 K       # Default: 300.0 K
#(6) Molecular dynamics and relaxations
#MD.TypeOfRun          CG            # Type of dynamics:
#MD.VariableCell       F
#MD.NumCGsteps         0           # 0 for single-point / 100 for gopt
#MD.MaxCGDispl         0.2 Bohr      # Default: 0.2 Bohr
#MD.MaxForceTol        0.02 eV/Ang   # Default: 0.04 eV/Ang
#MD.MaxStressTol       1.0 GPa       # Default: 1.0 GPa
# Geometry Constraints
#%block GeometryConstraints
#	position from 1 to 44
#%endblock GeometryConstraints
************************** End of input data file *****************************

reinit: -----------------------------------------------------------------------
reinit: System Name: GRP_doping
reinit: -----------------------------------------------------------------------
reinit: System Label: GRP_doping                                                  
reinit: -----------------------------------------------------------------------

initatom: Reading input for the pseudopotentials and atomic orbitals ----------
 Species number:            1  Label: N Atomic number:           7
 Species number:            2  Label: C Atomic number:           6
Ground state valence configuration:   2s02  2p03
Reading pseudopotential information in formatted form from N.psf

Valence configuration for pseudopotential generation:
2s( 2.00) rc: 1.48
2p( 3.00) rc: 1.48
3d( 0.00) rc: 1.48
4f( 0.00) rc: 1.48
Ground state valence configuration:   2s02  2p02
Reading pseudopotential information in formatted form from C.psf

Valence configuration for pseudopotential generation:
2s( 2.00) rc: 1.54
2p( 2.00) rc: 1.54
3d( 0.00) rc: 1.54
4f( 0.00) rc: 1.54
For N, standard SIESTA heuristics set lmxkb to 3
 (one more than the basis l, including polarization orbitals).
Use PS.lmax or PS.KBprojectors blocks to override.
For C, standard SIESTA heuristics set lmxkb to 3
 (one more than the basis l, including polarization orbitals).
Use PS.lmax or PS.KBprojectors blocks to override.

<basis_specs>
===============================================================================
N                    Z=   7    Mass=  14.010        Charge= 0.17977+309
Lmxo=1 Lmxkb= 3    BasisType=split      Semic=F
L=0  Nsemic=0  Cnfigmx=2
          n=1  nzeta=2  polorb=0
            splnorm:   0.15000    
               vcte:    0.0000    
               rinn:    0.0000    
                rcs:    0.0000      0.0000    
            lambdas:    1.0000      1.0000    
L=1  Nsemic=0  Cnfigmx=2
          n=1  nzeta=2  polorb=1
            splnorm:   0.15000    
               vcte:    0.0000    
               rinn:    0.0000    
                rcs:    0.0000      0.0000    
            lambdas:    1.0000      1.0000    
-------------------------------------------------------------------------------
L=0  Nkbl=1  erefs: 0.17977+309
L=1  Nkbl=1  erefs: 0.17977+309
L=2  Nkbl=1  erefs: 0.17977+309
L=3  Nkbl=1  erefs: 0.17977+309
===============================================================================
</basis_specs>

atom: Called for N                     (Z =   7)

read_vps: Pseudopotential generation method:
read_vps: ATM3      Troullier-Martins                       
Total valence charge:    5.00000

read_vps: Pseudopotential includes a core correction:
read_vps: Pseudo-core for xc-correction

xc_check: Exchange-correlation functional:
xc_check: GGA Perdew, Burke & Ernzerhof 1996
V l=0 = -2*Zval/r beyond r=  1.4606
V l=1 = -2*Zval/r beyond r=  1.4606
V l=2 = -2*Zval/r beyond r=  1.4606
V l=3 = -2*Zval/r beyond r=  1.4606
All V_l potentials equal beyond r=  1.4606
This should be close to max(r_c) in ps generation
All pots = -2*Zval/r beyond r=  1.4606

VLOCAL1: 99.0% of the norm of Vloc inside     20.347 Ry
VLOCAL1: 99.9% of the norm of Vloc inside     46.372 Ry
atom: Maximum radius for 4*pi*r*r*local-pseudopot. charge    1.76189
atom: Maximum radius for r*vlocal+2*Zval:    1.53550
GHOST: No ghost state for L =  0
GHOST: No ghost state for L =  1
GHOST: No ghost state for L =  2
GHOST: No ghost state for L =  3

KBgen: Kleinman-Bylander projectors: 
   l= 0   rc=  1.634559   el= -1.363963   Ekb=  5.296955   kbcos=  0.335621
   l= 1   rc=  1.614250   el= -0.521451   Ekb= -5.259161   kbcos= -0.433408
   l= 2   rc=  1.718383   el=  0.001991   Ekb= -1.271464   kbcos= -0.007566
   l= 3   rc=  1.761893   el=  0.003093   Ekb= -0.494769   kbcos= -0.001015

KBgen: Total number of  Kleinman-Bylander projectors:   16
atom: -------------------------------------------------------------------------

atom: SANKEY-TYPE ORBITALS:
atom: Selected multiple-zeta basis: split     

SPLIT: Orbitals with angular momentum L= 0

SPLIT: Basis orbitals for state 2s

SPLIT: PAO cut-off radius determined from an
SPLIT: energy shift=  0.007350 Ry

   izeta = 1
                 lambda =    1.000000
                     rc =    4.071465
                 energy =   -1.356470
                kinetic =    1.176977
    potential(screened) =   -2.533447
       potential(ionic) =   -8.057990

   izeta = 2
                 rmatch =    2.905100
              splitnorm =    0.150000
                 energy =   -1.158343
                kinetic =    1.813009
    potential(screened) =   -2.971352
       potential(ionic) =   -8.901931

SPLIT: Orbitals with angular momentum L= 1

SPLIT: Basis orbitals for state 2p

SPLIT: PAO cut-off radius determined from an
SPLIT: energy shift=  0.007350 Ry

   izeta = 1
                 lambda =    1.000000
                     rc =    4.972977
                 energy =   -0.513884
                kinetic =    3.441732
    potential(screened) =   -3.955616
       potential(ionic) =   -9.287901

   izeta = 2
                 rmatch =    3.054066
              splitnorm =    0.150000
                 energy =   -0.318226
                kinetic =    5.125348
    potential(screened) =   -5.443573
       potential(ionic) =  -11.380999

POLgen: Perturbative polarization orbital with L=  2

POLgen: Polarization orbital for state 2p

   izeta = 1
                     rc =    4.972977
                 energy =    1.607437
                kinetic =    3.268125
    potential(screened) =   -1.660688
       potential(ionic) =   -5.973652
atom: Total number of Sankey-type orbitals: 13

atm_pop: Valence configuration (for local Pseudopot. screening):
 2s( 2.00)                                                            
 2p( 3.00)                                                            
Vna: chval, zval:    5.00000   5.00000

Vna:  Cut-off radius for the neutral-atom potential:   4.972977
comcore: Pseudo-core radius Rcore=  1.554824

atom: _________________________________________________________________________

<basis_specs>
===============================================================================
C                    Z=   6    Mass=  12.010        Charge= 0.17977+309
Lmxo=1 Lmxkb= 3    BasisType=split      Semic=F
L=0  Nsemic=0  Cnfigmx=2
          n=1  nzeta=2  polorb=0
            splnorm:   0.15000    
               vcte:    0.0000    
               rinn:    0.0000    
                rcs:    0.0000      0.0000    
            lambdas:    1.0000      1.0000    
L=1  Nsemic=0  Cnfigmx=2
          n=1  nzeta=2  polorb=1
            splnorm:   0.15000    
               vcte:    0.0000    
               rinn:    0.0000    
                rcs:    0.0000      0.0000    
            lambdas:    1.0000      1.0000    
-------------------------------------------------------------------------------
L=0  Nkbl=1  erefs: 0.17977+309
L=1  Nkbl=1  erefs: 0.17977+309
L=2  Nkbl=1  erefs: 0.17977+309
L=3  Nkbl=1  erefs: 0.17977+309
===============================================================================
</basis_specs>

atom: Called for C                     (Z =   6)

read_vps: Pseudopotential generation method:
read_vps: ATM3      Troullier-Martins                       
Total valence charge:    4.00000

read_vps: Pseudopotential includes a core correction:
read_vps: Pseudo-core for xc-correction

xc_check: Exchange-correlation functional:
xc_check: GGA Perdew, Burke & Ernzerhof 1996
V l=0 = -2*Zval/r beyond r=  1.5227
V l=1 = -2*Zval/r beyond r=  1.5227
V l=2 = -2*Zval/r beyond r=  1.5227
V l=3 = -2*Zval/r beyond r=  1.5038
All V_l potentials equal beyond r=  1.5227
This should be close to max(r_c) in ps generation
All pots = -2*Zval/r beyond r=  1.5227

VLOCAL1: 99.0% of the norm of Vloc inside     18.722 Ry
VLOCAL1: 99.9% of the norm of Vloc inside     42.668 Ry
atom: Maximum radius for 4*pi*r*r*local-pseudopot. charge    1.83678
atom: Maximum radius for r*vlocal+2*Zval:    1.58088
GHOST: No ghost state for L =  0
GHOST: No ghost state for L =  1
GHOST: No ghost state for L =  2
GHOST: No ghost state for L =  3

KBgen: Kleinman-Bylander projectors: 
   l= 0   rc=  1.704034   el= -1.009801   Ekb=  5.335044   kbcos=  0.316824
   l= 1   rc=  1.704034   el= -0.388707   Ekb= -3.785862   kbcos= -0.366464
   l= 2   rc=  1.791422   el=  0.001971   Ekb= -0.970471   kbcos= -0.009212
   l= 3   rc=  1.859892   el=  0.003065   Ekb= -0.399525   kbcos= -0.001223

KBgen: Total number of  Kleinman-Bylander projectors:   16
atom: -------------------------------------------------------------------------

atom: SANKEY-TYPE ORBITALS:
atom: Selected multiple-zeta basis: split     

SPLIT: Orbitals with angular momentum L= 0

SPLIT: Basis orbitals for state 2s

SPLIT: PAO cut-off radius determined from an
SPLIT: energy shift=  0.007350 Ry

   izeta = 1
                 lambda =    1.000000
                     rc =    4.632753
                 energy =   -1.002270
                kinetic =    0.855760
    potential(screened) =   -1.858031
       potential(ionic) =   -5.417575

   izeta = 2
                 rmatch =    3.431921
              splitnorm =    0.150000
                 energy =   -0.867111
                kinetic =    1.300804
    potential(screened) =   -2.167915
       potential(ionic) =   -5.962684

SPLIT: Orbitals with angular momentum L= 1

SPLIT: Basis orbitals for state 2p

SPLIT: PAO cut-off radius determined from an
SPLIT: energy shift=  0.007350 Ry

   izeta = 1
                 lambda =    1.000000
                     rc =    5.658549
                 energy =   -0.381140
                kinetic =    2.399701
    potential(screened) =   -2.780841
       potential(ionic) =   -6.206085

   izeta = 2
                 rmatch =    3.653288
              splitnorm =    0.150000
                 energy =   -0.249149
                kinetic =    3.542762
    potential(screened) =   -3.791911
       potential(ionic) =   -7.581078

POLgen: Perturbative polarization orbital with L=  2

POLgen: Polarization orbital for state 2p

   izeta = 1
                     rc =    5.658549
                 energy =    1.109913
                kinetic =    2.304789
    potential(screened) =   -1.194876
       potential(ionic) =   -4.013592
atom: Total number of Sankey-type orbitals: 13

atm_pop: Valence configuration (for local Pseudopot. screening):
 2s( 2.00)                                                            
 2p( 2.00)                                                            
Vna: chval, zval:    4.00000   4.00000

Vna:  Cut-off radius for the neutral-atom potential:   5.658549
comcore: Pseudo-core radius Rcore=  1.791422

atom: _________________________________________________________________________

prinput: Basis input ----------------------------------------------------------

PAO.BasisType split     

%block ChemicalSpeciesLabel
    1    7 N                       # Species index, atomic number, species label
    2    6 C                       # Species index, atomic number, species label
%endblock ChemicalSpeciesLabel

%block PAO.Basis                 # Define Basis set
N                     2                    # Species label, number of l-shells
 n=2   0   2                         # n, l, Nzeta 
   4.071      2.905   
   1.000      1.000   
 n=2   1   2 P   1                   # n, l, Nzeta, Polarization, NzetaPol
   4.973      3.054   
   1.000      1.000   
C                     2                    # Species label, number of l-shells
 n=2   0   2                         # n, l, Nzeta 
   4.633      3.432   
   1.000      1.000   
 n=2   1   2 P   1                   # n, l, Nzeta, Polarization, NzetaPol
   5.659      3.653   
   1.000      1.000   
%endblock PAO.Basis

prinput: ----------------------------------------------------------------------

coor:   Atomic-coordinates input format  =     Cartesian coordinates
coor:                                          (in Angstroms)

siesta: Atomic coordinates (Bohr) and species
siesta:      2.23554   1.32097   0.00000  1        1
siesta:     11.54782   1.32097   0.00000  1        2
siesta:     20.86199   1.32097   0.00000  1        3
siesta:      6.89205   9.38661   0.00000  1        4
siesta:     16.20434   9.38661   0.00000  1        5
siesta:     11.54857  17.45226   0.00000  1        6
siesta:     25.51851   9.38661   0.00000  1        7
siesta:     20.86274  17.45226   0.00000  1        8
siesta:     32.50316  18.79590   0.00000  1        9
siesta:      4.56367   2.66461   0.00000  2       10
siesta:     32.50328  21.48508   0.00000  2       11
siesta:     34.83141  22.82873   0.00000  2       12
siesta:     34.83116  17.45226   0.00000  2       13
siesta:     37.15930  18.79590   0.00000  2       14
siesta:     32.50291  13.41944   0.00000  2       15
siesta:     34.83104  14.76308   0.00000  2       16
siesta:     30.17465   9.38661   0.00000  2       17
siesta:     32.50278  10.73026   0.00000  2       18
siesta:     27.84639   5.35379   0.00000  2       19
siesta:     30.17453   6.69743   0.00000  2       20
siesta:     27.84714  21.48508   0.00000  2       21
siesta:     30.17527  22.82873   0.00000  2       22
siesta:      6.89168   1.32097   0.00000  2       23
siesta:      9.21981   2.66461   0.00000  2       24
siesta:     13.87595   2.66461   0.00000  2       25
siesta:     16.20396   1.32097   0.00000  2       26
siesta:     18.53210   2.66461   0.00000  2       27
siesta:     23.19013   2.66461   0.00000  2       28
siesta:     25.51813   1.32097   0.00000  2       29
siesta:     27.84627   2.66461   0.00000  2       30
siesta:      4.56380   5.35379   0.00000  2       31
siesta:      6.89193   6.69743   0.00000  2       32
siesta:      9.21994   5.35379   0.00000  2       33
siesta:     11.54807   6.69743   0.00000  2       34
siesta:     13.87608   5.35379   0.00000  2       35
siesta:     16.20421   6.69743   0.00000  2       36
siesta:     18.53411   5.35379   0.00000  2       37
siesta:     20.86224   6.69743   0.00000  2       38
siesta:     23.19025   5.35379   0.00000  2       39
siesta:     25.51838   6.69743   0.00000  2       40
siesta:      9.22019  10.73026   0.00000  2       41
siesta:     11.54820   9.38661   0.00000  2       42
siesta:     13.87633  10.73026   0.00000  2       43
siesta:     18.53247  10.73026   0.00000  2       44
siesta:     20.86237   9.38661   0.00000  2       45
siesta:     23.19050  10.73026   0.00000  2       46
siesta:      9.22031  13.41944   0.00000  2       47
siesta:     11.54845  14.76308   0.00000  2       48
siesta:     13.87645  13.41944   0.00000  2       49
siesta:     16.20459  14.76308   0.00000  2       50
siesta:     18.53448  13.41944   0.00000  2       51
siesta:     20.86262  14.76308   0.00000  2       52
siesta:     13.87670  18.79590   0.00000  2       53
siesta:     16.20471  17.45226   0.00000  2       54
siesta:     18.53284  18.79590   0.00000  2       55
siesta:     13.87683  21.48508   0.00000  2       56
siesta:     16.20496  22.82873   0.00000  2       57
siesta:     18.53486  21.48508   0.00000  2       58
siesta:     20.86299  22.82873   0.00000  2       59
siesta:     27.84664  10.73026   0.00000  2       60
siesta:     23.19063  13.41944   0.00000  2       61
siesta:     25.51876  14.76308   0.00000  2       62
siesta:     23.19088  18.79590   0.00000  2       63
siesta:     27.84677  13.41944   0.00000  2       64
siesta:     30.17490  14.76308   0.00000  2       65
siesta:     25.51888  17.45226   0.00000  2       66
siesta:     27.84702  18.79590   0.00000  2       67
siesta:     23.19100  21.48508   0.00000  2       68
siesta:     25.51913  22.82873   0.00000  2       69
siesta:     30.17503  17.45226   0.00000  2       70
siesta:     37.16131  21.48508   0.00000  2       71
siesta:     39.48945  22.82873   0.00000  2       72

siesta: System type = slab      

initatomlists: Number of atoms, orbitals, and projectors:     72   936  1152

siesta: ******************** Simulation parameters ****************************
siesta:
siesta: The following are some of the parameters of the simulation.
siesta: A complete list of the parameters used, including default values,
siesta: can be found in file out.fdf
siesta:
redata: Non-Collinear-spin run           =     F
redata: SpinPolarized (Up/Down) run      =     F
redata: Number of spin components        =     1
redata: Long output                      =     F
redata: Number of Atomic Species         =        2
redata: Charge density info will appear in .RHO file
redata: Write Mulliken Pop.              =     NO
redata: Mesh Cutoff                      =   200.0000  Ry
redata: Net charge of the system         =     0.0000 |e|
redata: Max. number of SCF Iter          =      500
redata: SCF convergence failure will abort job
redata: Performing Pulay mixing using    =    10 iterations
redata: Mix DM in first SCF step ?       =     F
redata: Write Pulay info on disk?        =     F
redata: Discard 1st Pulay DM after  kick =     F
redata: New DM Mixing Weight             =     0.0500
redata: New DM Occupancy tolerance       = 0.000000000001
redata: No kicks to SCF
redata: DM Mixing Weight for Kicks       =     0.5000
redata: DM Tolerance for SCF             =     0.000100
redata: Require Energy convergence for SCF =     F
redata: DM Energy tolerance for SCF      =     0.000100 eV
redata: Require Harris convergence for SCF =     F
redata: DM Harris energy tolerance for SCF =     0.000100 eV
redata: Using Saved Data (generic)   =     F
redata: Use continuation files for DM    =     T
redata: Neglect nonoverlap interactions  =     F
redata: Method of Calculation            =     Diagonalization
redata: Divide and Conquer               =     T
redata: Electronic Temperature           =     0.0019  Ry
redata: Fix the spin of the system       =     F
redata: Dynamics option                  =     Verlet MD run
redata: Initial MD time step             =        1
redata:   Final MD time step             =        1
redata: Length of MD time step           =     1.0000  fs
redata: Initial Temperature of MD run    =     0.0000  K
redata: Perform a MD quench              =     F
redata: ***********************************************************************
Total number of electrons:   297.000000
Total ionic charge:   297.000000

* ProcessorY, Blocksize:    2  24

k-point displ. along   1 input, could be:     0.00    0.50
k-point displ. along   2 input, could be:     0.00    0.50
 Kpoints in:          364 . Kpoints trimmed:          352

siesta: k-grid: Number of k-points =   352
siesta: k-grid: Cutoff (effective) =     5.000 Ang
siesta: k-grid: Supercell and displacements
siesta: k-grid:   26   0   0      0.000
siesta: k-grid:    0  26   0      0.000
siesta: k-grid:    0   0   1      0.000
Naive supercell factors:     2    2    2

superc: Internal auxiliary supercell:     2 x     2 x     2  =       8
superc: Number of atoms, orbitals, and projectors:    576   7488   9216

* Maximum dynamic memory allocated =     6 MB

siesta:                 ==============================
                            Begin MD step =      1
                        ==============================

superc: Internal auxiliary supercell:     2 x     2 x     2  =       8
superc: Number of atoms, orbitals, and projectors:    576   7488   9216

outcell: Unit cell vectors (Ang):
       14.785000    0.000000    0.000000
        7.393000   12.805052    0.000000
        0.000000    0.000000   10.000000

outcell: Cell vector modules (Ang)   :   14.785000   14.786000   10.000000
outcell: Cell angles (23,13,12) (deg):     90.0000     90.0000     60.0000
outcell: Cell volume (Ang**3)        :   1893.2269
New_DM. Step:     1
Initializing Density Matrix...

iodm: Reading Density Matrix from files
 Read DM has different structure. Fixing...

InitMesh: MESH =   120 x   120 x    90 =     1296000
InitMesh: Mesh cutoff (required, used) =   200.000   223.865 Ry

* Maximum dynamic memory allocated =   187 MB

stepf: Fermi-Dirac step function

siesta: Program's energy decomposition (eV):
siesta: Ebs     =     -4179.291292
siesta: Eions   =     19849.732669
siesta: Ena     =      4064.225798
siesta: Ekin    =      8472.847671
siesta: Enl     =      -987.335289
siesta: DEna    =      -309.168618
siesta: DUscf   =       154.621009
siesta: DUext   =         0.000000
siesta: Exc     =     -4276.084001
siesta: eta*DQ  =         0.000000
siesta: Emadel  =         0.000000
siesta: Emeta   =         0.000000
siesta: Emolmec =         0.000000
siesta: Ekinion =         0.000000
siesta: Eharris =    -13016.409631
siesta: Etot    =    -12730.626099
siesta: FreeEng =    -12730.626099

siesta: iscf   Eharris(eV)      E_KS(eV)   FreeEng(eV)   dDmax  Ef(eV)
siesta:    1   -13016.4096   -12730.6261   -12730.6261  0.8428 -2.7215
timer: Routine,Calls,Time,% = IterSCF        1    7944.373  99.85
elaps: Routine,Calls,Wall,% = IterSCF        1     994.612  99.85
siesta:    2   -17132.1190   -11823.8195   -11823.8552 25.7463 -7.8471
siesta:    3   -12911.8509   -12741.7338   -12741.7703  0.6699 -2.8920
siesta:    4   -12844.0288   -12749.3338   -12749.3735  0.5944 -2.8934
siesta:    5   -12757.9366   -12748.5660   -12748.6112  0.4962 -2.9393
siesta:    6   -12745.6559   -12742.8715   -12742.9047  0.4343 -2.9935
siesta:    7   -12742.1251   -12735.1645   -12735.2066  0.3487 -3.1082
siesta:    8   -12741.4088   -12731.4596   -12731.4983  0.2667 -3.2474
siesta:    9   -12741.7745   -12725.2751   -12725.3129  0.1253 -3.5449
siesta:   10   -12740.6159   -12725.5898   -12725.6260  0.1096 -3.5653
siesta:   11   -12740.0205   -12725.7941   -12725.8383  0.0889 -3.5300
siesta:   12   -12739.9970   -12726.1159   -12726.1671  0.0790 -3.5108
siesta:   13   -12739.9819   -12727.4240   -12727.4765  0.0662 -3.4774
siesta:   14   -12739.8937   -12730.6063   -12730.6578  0.0439 -3.4274
siesta:   15   -12739.8585   -12732.5185   -12732.5679  0.0320 -3.4081
siesta:   16   -12739.8454   -12734.5482   -12734.5974  0.0213 -3.3938
siesta:   17   -12739.8409   -12737.2582   -12737.3077  0.0116 -3.3957
siesta:   18   -12739.8359   -12737.9133   -12737.9635  0.0103 -3.3996
siesta:   19   -12739.8322   -12738.8582   -12738.9081  0.0059 -3.4082
siesta:   20   -12739.8289   -12739.3584   -12739.4081  0.0025 -3.4097
siesta:   21   -12739.8280   -12739.5832   -12739.6329  0.0017 -3.4103
siesta:   22   -12739.8275   -12739.6572   -12739.7068  0.0011 -3.4105
siesta:   23   -12739.8275   -12739.6816   -12739.7312  0.0010 -3.4105
siesta:   24   -12739.8274   -12739.7448   -12739.7944  0.0008 -3.4103
siesta:   25   -12739.8274   -12739.7798   -12739.8294  0.0008 -3.4100
siesta:   26   -12739.8274   -12739.7916   -12739.8412  0.0005 -3.4101
siesta:   27   -12739.8274   -12739.7879   -12739.8375  0.0003 -3.4101
siesta:   28   -12739.8274   -12739.7960   -12739.8456  0.0002 -3.4101
siesta:   29   -12739.8274   -12739.8277   -12739.8772  0.0001 -3.4101
siesta:   30   -12739.8274   -12739.8295   -12739.8791  0.0001 -3.4101

siesta: E_KS(eV) =           -12739.8242

siesta: E_KS - E_eggbox =    -12739.8242

siesta: Atomic forces (eV/Ang):
----------------------------------------
   Tot    0.209249   -0.297365    0.000000
----------------------------------------
   Max    1.049944
   Res    0.245750    sqrt( Sum f_i^2 / 3N )
----------------------------------------
   Max    1.049944    constrained

Stress-tensor-Voigt (kbar):        0.58        1.57        0.15       -0.59        0.00        0.00
(Free)E + p*V (eV/cell)   -12740.7786
Target enthalpy (eV/cell)   -12739.8737

siesta: Stress tensor (static) (eV/Ang**3):
         0.000361   -0.000370    0.000000
        -0.000370    0.000981    0.000000
         0.000000    0.000000    0.000092

siesta: Pressure (static):         -0.76578940  kBar

siesta: Stress tensor (total) (eV/Ang**3):
         0.000361   -0.000370    0.000000
        -0.000370    0.000981    0.000000
         0.000000    0.000000    0.000092

siesta: Pressure (total):         -0.76578940  kBar

siesta: Temp_ion =       0.000 K

* Maximum dynamic memory allocated =   203 MB

siesta: Program's energy decomposition (eV):
siesta: Ebs     =     -4185.942411
siesta: Eions   =     19849.732669
siesta: Ena     =      4064.225798
siesta: Ekin    =      8579.954635
siesta: Enl     =     -1059.106308
siesta: DEna    =      -247.330672
siesta: DUscf   =        22.424314
siesta: DUext   =         0.000000
siesta: Exc     =     -4250.259251
siesta: eta*DQ  =         0.000000
siesta: Emadel  =         0.000000
siesta: Emeta   =         0.000000
siesta: Emolmec =         0.000000
siesta: Ekinion =         0.000000
siesta: Eharris =    -12739.827421
siesta: Etot    =    -12739.824152
siesta: FreeEng =    -12739.873739

siesta: Final energy (eV):
siesta:  Band Struct. =   -4185.942411
siesta:       Kinetic =    8579.954635
siesta:       Hartree =   24796.286148
siesta:    Ext. field =       0.000000
siesta:   Exch.-corr. =   -4250.259251
siesta:  Ion-electron =  -57569.802615
siesta:       Ion-ion =   15703.996931
siesta:       Ekinion =       0.000000
siesta:         Total =  -12739.824152

siesta: Atomic forces (eV/Ang):
siesta:      1    0.098485    0.037469    0.000000
siesta:      2   -0.236231    0.063482    0.000000
siesta:      3   -0.089497    0.019605    0.000000
siesta:      4   -0.049985   -0.267192    0.000000
siesta:      5   -0.022578   -0.031281    0.000000
siesta:      6    0.007084   -0.093397    0.000000
siesta:      7    0.020574    0.038167    0.000000
siesta:      8    0.031703   -0.022404    0.000000
siesta:      9    0.252694    0.170071    0.000000
siesta:     10   -0.314307   -0.184829    0.000000
siesta:     11   -0.130078    0.186750    0.000000
siesta:     12   -0.322446    0.033675    0.000000
siesta:     13    0.097900   -0.225869    0.000000
siesta:     14   -0.137556   -0.323880    0.000000
siesta:     15    0.677652   -0.766974    0.000000
siesta:     16   -0.752564    0.810100    0.000000
siesta:     17   -0.096394   -0.392836    0.000000
siesta:     18    0.494974    0.265182    0.000000
siesta:     19    0.321578    0.213369    0.000000
siesta:     20   -0.032860    0.025705    0.000000
siesta:     21   -0.312968    0.958764    0.000000
siesta:     22    0.314386   -1.049944    0.000000
siesta:     23    0.012681   -0.290371    0.000000
siesta:     24    0.290409   -0.143045    0.000000
siesta:     25   -0.059475   -0.379013    0.000000
siesta:     26    0.110863    0.203918    0.000000
siesta:     27    0.202137   -0.273615    0.000000
siesta:     28   -0.224156   -0.178506    0.000000
siesta:     29    0.062978   -0.176199    0.000000
siesta:     30    0.189750   -0.231745    0.000000
siesta:     31   -0.232520    0.132003    0.000000
siesta:     32    0.020768    0.317291    0.000000
siesta:     33    0.212794    0.114954    0.000000
siesta:     34    0.015947    0.010556    0.000000
siesta:     35   -0.207901    0.240975    0.000000
siesta:     36    0.032718    0.122973    0.000000
siesta:     37    0.163346    0.211317    0.000000
siesta:     38    0.051824    0.054465    0.000000
siesta:     39   -0.298783    0.136106    0.000000
siesta:     40   -0.005004    0.262312    0.000000
siesta:     41   -0.358353    0.140360    0.000000
siesta:     42    0.113654   -0.325154    0.000000
siesta:     43    0.118650   -0.060643    0.000000
siesta:     44   -0.032747   -0.047911    0.000000
siesta:     45   -0.205175   -0.418686    0.000000
siesta:     46    0.470270    0.026225    0.000000
siesta:     47    0.246547   -0.035924    0.000000
siesta:     48   -0.157149    0.283164    0.000000
siesta:     49    0.290677    0.056620    0.000000
siesta:     50    0.103721    0.015687    0.000000
siesta:     51   -0.485103    0.049998    0.000000
siesta:     52    0.253724    0.396107    0.000000
siesta:     53   -0.263149   -0.102777    0.000000
siesta:     54   -0.019177   -0.348829    0.000000
siesta:     55    0.265102   -0.137564    0.000000
siesta:     56   -0.077050    0.110557    0.000000
siesta:     57   -0.070754    0.273328    0.000000
siesta:     58    0.313845    0.167103    0.000000
siesta:     59   -0.002059   -0.038026    0.000000
siesta:     60   -0.432380   -0.266152    0.000000
siesta:     61   -0.169445   -0.107165    0.000000
siesta:     62    0.523572    0.305497    0.000000
siesta:     63   -0.450413   -0.240659    0.000000
siesta:     64   -0.767946   -0.042379    0.000000
siesta:     65    0.234539    0.434913    0.000000
siesta:     66   -0.411370   -0.665537    0.000000
siesta:     67    0.493569   -0.015738    0.000000
siesta:     68   -0.379170    0.098624    0.000000
siesta:     69    0.467723    0.294672    0.000000
siesta:     70    0.208335    0.107241    0.000000
siesta:     71    0.640662    0.396488    0.000000
siesta:     72   -0.411846   -0.198915    0.000000
siesta: ----------------------------------------
siesta:    Tot    0.209249   -0.297365    0.000000

siesta: Stress tensor (static) (eV/Ang**3):
siesta:     0.000361   -0.000370    0.000000
siesta:    -0.000370    0.000981    0.000000
siesta:     0.000000    0.000000    0.000092

siesta: Cell volume =       1893.226895 Ang**3

siesta: Pressure (static):
siesta:                Solid            Molecule  Units
siesta:          -0.00000521         -0.00002677  Ry/Bohr**3
siesta:          -0.00047796         -0.00245808  eV/Ang**3
siesta:          -0.76578940         -3.93831480  kBar
(Free)E+ p_basis*V_orbitals  =      -12710.422792
(Free)Eharris+ p_basis*V_orbitals  =      -12710.420699

siesta: Electric dipole (a.u.)  =    0.000000    0.000000    0.000000
siesta: Electric dipole (Debye) =    0.000000    0.000000    0.000000

* Maximum dynamic memory allocated : Node    0 =   203 MB
* Maximum dynamic memory allocated : Node    1 =    74 MB
* Maximum dynamic memory allocated : Node    2 =    76 MB
* Maximum dynamic memory allocated : Node    3 =   193 MB
* Maximum dynamic memory allocated : Node    4 =   202 MB
* Maximum dynamic memory allocated : Node    5 =    74 MB
* Maximum dynamic memory allocated : Node    6 =    76 MB
* Maximum dynamic memory allocated : Node    7 =   187 MB

* Maximum memory occured during matrixMtoO                    

timer: CPU execution times:
timer:  Routine       Calls   Time/call    Tot.time        %
timer:  siesta            1  235990.052  235990.052   100.00
timer:  Setup             1       3.140       3.140     0.00
timer:  bands             1       0.011       0.011     0.00
timer:  writewave         1       0.018       0.018     0.00
timer:  KSV_init          1       0.000       0.000     0.00
timer:  IterMD            1  235978.761  235978.761   100.00
timer:  hsparse           1       0.265       0.265     0.00
timer:  overlap           1       6.340       6.340     0.00
timer:  IterSCF          30    7860.290  235808.693    99.92
timer:  kinefsm           2       3.302       6.603     0.00
timer:  nlefsm            2      18.823      37.646     0.02
timer:  DHSCF            31      91.143    2825.437     1.20
timer:  DHSCF1            1       0.809       0.809     0.00
timer:  DHSCF2            1      34.653      34.653     0.01
timer:  REORD           250       0.014       3.411     0.00
timer:  POISON           32       3.706     118.599     0.05
timer:  DHSCF3           31      88.915    2756.368     1.17
timer:  rhoofd           31      16.489     511.162     0.22
timer:  cellXC           31       3.579     110.949     0.05
timer:  vmat             31      44.229    1371.098     0.58
timer:  MolMec            2       0.001       0.002     0.00
timer:  diagon           30    7767.749  233032.470    98.75
timer:  c-eigval      10560       7.227   76311.974    32.34
timer:  c-buildHS     10560       0.207    2180.916     0.92
timer:  cdiag         21120       7.395  156187.591    66.18
timer:  cdiag1        21120       0.462    9767.189     4.14
timer:  cdiag2        21120       1.986   41941.805    17.77
timer:  cdiag3        21120       4.165   87963.841    37.27
timer:  cdiag4        21120       0.247    5224.036     2.21
timer:  c-eigvec      10560       7.858   82982.455    35.16
timer:  c-buildD      10560       6.971   73614.955    31.19
timer:  DHSCF4            1      30.816      30.816     0.01
timer:  dfscf             1      28.986      28.986     0.01
timer:  overfsm           1       0.377       0.377     0.00
timer:  optical           1       7.133       7.133     0.00
  

elaps: ELAPSED times:
elaps:  Routine       Calls   Time/call    Tot.time        %
elaps:  siesta            1   29543.738   29543.738   100.00
elaps:  Setup             1       0.391       0.391     0.00
elaps:  bands             1       0.001       0.001     0.00
elaps:  writewave         1       0.002       0.002     0.00
elaps:  KSV_init          1       0.000       0.000     0.00
elaps:  IterMD            1   29542.326   29542.326   100.00
elaps:  hsparse           1       0.031       0.031     0.00
elaps:  overlap           1       0.970       0.970     0.00
elaps:  IterSCF          30     984.035   29521.049    99.92
elaps:  kinefsm           2       0.496       0.993     0.00
elaps:  nlefsm            2       2.344       4.689     0.02
elaps:  DHSCF            31      11.508     356.737     1.21
elaps:  DHSCF1            1       0.104       0.104     0.00
elaps:  DHSCF2            1       4.334       4.334     0.01
elaps:  REORD           250       0.002       0.455     0.00
elaps:  POISON           32       0.465      14.868     0.05
elaps:  DHSCF3           31      11.124     344.839     1.17
elaps:  rhoofd           31       3.565     110.521     0.37
elaps:  cellXC           31       0.447      13.848     0.05
elaps:  vmat             31       5.533     171.510     0.58
elaps:  MolMec            2       0.000       0.000     0.00
elaps:  diagon           30     972.487   29174.600    98.75
elaps:  c-eigval      10560       0.904    9549.133    32.32
elaps:  c-buildHS     10560       0.027     287.528     0.97
elaps:  cdiag         21120       0.909   19203.598    65.00
elaps:  cdiag1        21120       0.057    1213.857     4.11
elaps:  cdiag2        21120       0.248    5247.904    17.76
elaps:  cdiag3        21120       0.522   11023.400    37.31
elaps:  cdiag4        21120       0.032     683.207     2.31
elaps:  c-eigvec      10560       0.954   10076.486    34.11
elaps:  c-buildD      10560       0.903    9531.487    32.26
elaps:  DHSCF4            1       7.072       7.072     0.02
elaps:  dfscf             1       6.694       6.694     0.02
elaps:  overfsm           1       0.048       0.048     0.00
elaps:  optical           1       0.000       0.000     0.00
  
>> End of run:  29-NOV-2015   4:05:12
