Siesta Version:                                        siesta-3.2-pl-3
Architecture  : x86_64-unknown-linux-gnu--unknown
Compiler flags: mpiifort -g -O2 -fPIC -xSSE4.1 -fp-model source -shared-intel 
PARALLEL version

* Running on    8 nodes in parallel
>> Start of run:   1-DEC-2015   7:14:41

                           ***********************       
                           *  WELCOME TO SIESTA  *       
                           ***********************       

reinit: Reading from standard input
************************** Dump of input data file ****************************
#(1) General system descriptors
SystemName            GRP_doping    # Descriptive name of the system
SystemLabel           GRP_doping    # Short name for naming files
%include STRUCT.fdf
%include KPT.fdf
%include BASIS.fdf
#%include TS.fdf # for transiesta calculation
#(4) DFT, Grid, SCF
XC.functional         GGA           # LDA or GGA (default = LDA)
XC.authors            PBE           # CA (Ceperley-Aldr) = PZ
                                    #    (Perdew-Zunger) - LDA - Default
                                    # PW92 (Perdew-Wang-92) - LDA
                                    # PBE (Perdew-Burke-Ernzerhof) - GGA
MeshCutoff            200.000000    Ry      # Default: 50.0 Ry ~ 0.444 Bohr
                                    #         100.0 Ry ~ 0.314 Bohr
MaxSCFIterations      500           # Default: 50
DM.MixingWeight       0.05          # Default: 0.25
DM.NumberPulay        10            # Default: 0
DM.PulayOnFile        F             # SystemLabel.P1, SystemLabel.P2
DM.Tolerance          1.d-4         # Default: 1.d-4
DM.UseSaveDM          .true.        # because of the bug
SCFMustConverge       .true.
NeglNonOverlapInt     F             # Default: F
#(5) Eigenvalue problem: order-N or diagonalization
SolutionMethod        Diagon        # or Transiesta
ElectronicTemperature 300.0 K       # Default: 300.0 K
#(6) Molecular dynamics and relaxations
#MD.TypeOfRun          CG            # Type of dynamics:
#MD.VariableCell       F
#MD.NumCGsteps         0           # 0 for single-point / 100 for gopt
#MD.MaxCGDispl         0.2 Bohr      # Default: 0.2 Bohr
#MD.MaxForceTol        0.02 eV/Ang   # Default: 0.04 eV/Ang
#MD.MaxStressTol       1.0 GPa       # Default: 1.0 GPa
# Geometry Constraints
#%block GeometryConstraints
#	position from 1 to 44
#%endblock GeometryConstraints
************************** End of input data file *****************************

reinit: -----------------------------------------------------------------------
reinit: System Name: GRP_doping
reinit: -----------------------------------------------------------------------
reinit: System Label: GRP_doping                                                  
reinit: -----------------------------------------------------------------------

initatom: Reading input for the pseudopotentials and atomic orbitals ----------
 Species number:            1  Label: C Atomic number:           6
 Species number:            2  Label: N Atomic number:           7
Ground state valence configuration:   2s02  2p02
Reading pseudopotential information in formatted form from C.psf

Valence configuration for pseudopotential generation:
2s( 2.00) rc: 1.54
2p( 2.00) rc: 1.54
3d( 0.00) rc: 1.54
4f( 0.00) rc: 1.54
Ground state valence configuration:   2s02  2p03
Reading pseudopotential information in formatted form from N.psf

Valence configuration for pseudopotential generation:
2s( 2.00) rc: 1.48
2p( 3.00) rc: 1.48
3d( 0.00) rc: 1.48
4f( 0.00) rc: 1.48
For C, standard SIESTA heuristics set lmxkb to 3
 (one more than the basis l, including polarization orbitals).
Use PS.lmax or PS.KBprojectors blocks to override.
For N, standard SIESTA heuristics set lmxkb to 3
 (one more than the basis l, including polarization orbitals).
Use PS.lmax or PS.KBprojectors blocks to override.

<basis_specs>
===============================================================================
C                    Z=   6    Mass=  12.010        Charge= 0.17977+309
Lmxo=1 Lmxkb= 3    BasisType=split      Semic=F
L=0  Nsemic=0  Cnfigmx=2
          n=1  nzeta=2  polorb=0
            splnorm:   0.15000    
               vcte:    0.0000    
               rinn:    0.0000    
                rcs:    0.0000      0.0000    
            lambdas:    1.0000      1.0000    
L=1  Nsemic=0  Cnfigmx=2
          n=1  nzeta=2  polorb=1
            splnorm:   0.15000    
               vcte:    0.0000    
               rinn:    0.0000    
                rcs:    0.0000      0.0000    
            lambdas:    1.0000      1.0000    
-------------------------------------------------------------------------------
L=0  Nkbl=1  erefs: 0.17977+309
L=1  Nkbl=1  erefs: 0.17977+309
L=2  Nkbl=1  erefs: 0.17977+309
L=3  Nkbl=1  erefs: 0.17977+309
===============================================================================
</basis_specs>

atom: Called for C                     (Z =   6)

read_vps: Pseudopotential generation method:
read_vps: ATM3      Troullier-Martins                       
Total valence charge:    4.00000

read_vps: Pseudopotential includes a core correction:
read_vps: Pseudo-core for xc-correction

xc_check: Exchange-correlation functional:
xc_check: GGA Perdew, Burke & Ernzerhof 1996
V l=0 = -2*Zval/r beyond r=  1.5227
V l=1 = -2*Zval/r beyond r=  1.5227
V l=2 = -2*Zval/r beyond r=  1.5227
V l=3 = -2*Zval/r beyond r=  1.5038
All V_l potentials equal beyond r=  1.5227
This should be close to max(r_c) in ps generation
All pots = -2*Zval/r beyond r=  1.5227

VLOCAL1: 99.0% of the norm of Vloc inside     18.722 Ry
VLOCAL1: 99.9% of the norm of Vloc inside     42.668 Ry
atom: Maximum radius for 4*pi*r*r*local-pseudopot. charge    1.83678
atom: Maximum radius for r*vlocal+2*Zval:    1.58088
GHOST: No ghost state for L =  0
GHOST: No ghost state for L =  1
GHOST: No ghost state for L =  2
GHOST: No ghost state for L =  3

KBgen: Kleinman-Bylander projectors: 
   l= 0   rc=  1.704034   el= -1.009801   Ekb=  5.335044   kbcos=  0.316824
   l= 1   rc=  1.704034   el= -0.388707   Ekb= -3.785862   kbcos= -0.366464
   l= 2   rc=  1.791422   el=  0.001971   Ekb= -0.970471   kbcos= -0.009212
   l= 3   rc=  1.859892   el=  0.003065   Ekb= -0.399525   kbcos= -0.001223

KBgen: Total number of  Kleinman-Bylander projectors:   16
atom: -------------------------------------------------------------------------

atom: SANKEY-TYPE ORBITALS:
atom: Selected multiple-zeta basis: split     

SPLIT: Orbitals with angular momentum L= 0

SPLIT: Basis orbitals for state 2s

SPLIT: PAO cut-off radius determined from an
SPLIT: energy shift=  0.007350 Ry

   izeta = 1
                 lambda =    1.000000
                     rc =    4.632753
                 energy =   -1.002270
                kinetic =    0.855760
    potential(screened) =   -1.858031
       potential(ionic) =   -5.417575

   izeta = 2
                 rmatch =    3.431921
              splitnorm =    0.150000
                 energy =   -0.867111
                kinetic =    1.300804
    potential(screened) =   -2.167915
       potential(ionic) =   -5.962684

SPLIT: Orbitals with angular momentum L= 1

SPLIT: Basis orbitals for state 2p

SPLIT: PAO cut-off radius determined from an
SPLIT: energy shift=  0.007350 Ry

   izeta = 1
                 lambda =    1.000000
                     rc =    5.658549
                 energy =   -0.381140
                kinetic =    2.399701
    potential(screened) =   -2.780841
       potential(ionic) =   -6.206085

   izeta = 2
                 rmatch =    3.653288
              splitnorm =    0.150000
                 energy =   -0.249149
                kinetic =    3.542762
    potential(screened) =   -3.791911
       potential(ionic) =   -7.581078

POLgen: Perturbative polarization orbital with L=  2

POLgen: Polarization orbital for state 2p

   izeta = 1
                     rc =    5.658549
                 energy =    1.109913
                kinetic =    2.304789
    potential(screened) =   -1.194876
       potential(ionic) =   -4.013592
atom: Total number of Sankey-type orbitals: 13

atm_pop: Valence configuration (for local Pseudopot. screening):
 2s( 2.00)                                                            
 2p( 2.00)                                                            
Vna: chval, zval:    4.00000   4.00000

Vna:  Cut-off radius for the neutral-atom potential:   5.658549
comcore: Pseudo-core radius Rcore=  1.791422

atom: _________________________________________________________________________

<basis_specs>
===============================================================================
N                    Z=   7    Mass=  14.010        Charge= 0.17977+309
Lmxo=1 Lmxkb= 3    BasisType=split      Semic=F
L=0  Nsemic=0  Cnfigmx=2
          n=1  nzeta=2  polorb=0
            splnorm:   0.15000    
               vcte:    0.0000    
               rinn:    0.0000    
                rcs:    0.0000      0.0000    
            lambdas:    1.0000      1.0000    
L=1  Nsemic=0  Cnfigmx=2
          n=1  nzeta=2  polorb=1
            splnorm:   0.15000    
               vcte:    0.0000    
               rinn:    0.0000    
                rcs:    0.0000      0.0000    
            lambdas:    1.0000      1.0000    
-------------------------------------------------------------------------------
L=0  Nkbl=1  erefs: 0.17977+309
L=1  Nkbl=1  erefs: 0.17977+309
L=2  Nkbl=1  erefs: 0.17977+309
L=3  Nkbl=1  erefs: 0.17977+309
===============================================================================
</basis_specs>

atom: Called for N                     (Z =   7)

read_vps: Pseudopotential generation method:
read_vps: ATM3      Troullier-Martins                       
Total valence charge:    5.00000

read_vps: Pseudopotential includes a core correction:
read_vps: Pseudo-core for xc-correction

xc_check: Exchange-correlation functional:
xc_check: GGA Perdew, Burke & Ernzerhof 1996
V l=0 = -2*Zval/r beyond r=  1.4606
V l=1 = -2*Zval/r beyond r=  1.4606
V l=2 = -2*Zval/r beyond r=  1.4606
V l=3 = -2*Zval/r beyond r=  1.4606
All V_l potentials equal beyond r=  1.4606
This should be close to max(r_c) in ps generation
All pots = -2*Zval/r beyond r=  1.4606

VLOCAL1: 99.0% of the norm of Vloc inside     20.347 Ry
VLOCAL1: 99.9% of the norm of Vloc inside     46.372 Ry
atom: Maximum radius for 4*pi*r*r*local-pseudopot. charge    1.76189
atom: Maximum radius for r*vlocal+2*Zval:    1.53550
GHOST: No ghost state for L =  0
GHOST: No ghost state for L =  1
GHOST: No ghost state for L =  2
GHOST: No ghost state for L =  3

KBgen: Kleinman-Bylander projectors: 
   l= 0   rc=  1.634559   el= -1.363963   Ekb=  5.296955   kbcos=  0.335621
   l= 1   rc=  1.614250   el= -0.521451   Ekb= -5.259161   kbcos= -0.433408
   l= 2   rc=  1.718383   el=  0.001991   Ekb= -1.271464   kbcos= -0.007566
   l= 3   rc=  1.761893   el=  0.003093   Ekb= -0.494769   kbcos= -0.001015

KBgen: Total number of  Kleinman-Bylander projectors:   16
atom: -------------------------------------------------------------------------

atom: SANKEY-TYPE ORBITALS:
atom: Selected multiple-zeta basis: split     

SPLIT: Orbitals with angular momentum L= 0

SPLIT: Basis orbitals for state 2s

SPLIT: PAO cut-off radius determined from an
SPLIT: energy shift=  0.007350 Ry

   izeta = 1
                 lambda =    1.000000
                     rc =    4.071465
                 energy =   -1.356470
                kinetic =    1.176977
    potential(screened) =   -2.533447
       potential(ionic) =   -8.057990

   izeta = 2
                 rmatch =    2.905100
              splitnorm =    0.150000
                 energy =   -1.158343
                kinetic =    1.813009
    potential(screened) =   -2.971352
       potential(ionic) =   -8.901931

SPLIT: Orbitals with angular momentum L= 1

SPLIT: Basis orbitals for state 2p

SPLIT: PAO cut-off radius determined from an
SPLIT: energy shift=  0.007350 Ry

   izeta = 1
                 lambda =    1.000000
                     rc =    4.972977
                 energy =   -0.513884
                kinetic =    3.441732
    potential(screened) =   -3.955616
       potential(ionic) =   -9.287901

   izeta = 2
                 rmatch =    3.054066
              splitnorm =    0.150000
                 energy =   -0.318226
                kinetic =    5.125348
    potential(screened) =   -5.443573
       potential(ionic) =  -11.380999

POLgen: Perturbative polarization orbital with L=  2

POLgen: Polarization orbital for state 2p

   izeta = 1
                     rc =    4.972977
                 energy =    1.607437
                kinetic =    3.268125
    potential(screened) =   -1.660688
       potential(ionic) =   -5.973652
atom: Total number of Sankey-type orbitals: 13

atm_pop: Valence configuration (for local Pseudopot. screening):
 2s( 2.00)                                                            
 2p( 3.00)                                                            
Vna: chval, zval:    5.00000   5.00000

Vna:  Cut-off radius for the neutral-atom potential:   4.972977
comcore: Pseudo-core radius Rcore=  1.554824

atom: _________________________________________________________________________

prinput: Basis input ----------------------------------------------------------

PAO.BasisType split     

%block ChemicalSpeciesLabel
    1    6 C                       # Species index, atomic number, species label
    2    7 N                       # Species index, atomic number, species label
%endblock ChemicalSpeciesLabel

%block PAO.Basis                 # Define Basis set
C                     2                    # Species label, number of l-shells
 n=2   0   2                         # n, l, Nzeta 
   4.633      3.432   
   1.000      1.000   
 n=2   1   2 P   1                   # n, l, Nzeta, Polarization, NzetaPol
   5.659      3.653   
   1.000      1.000   
N                     2                    # Species label, number of l-shells
 n=2   0   2                         # n, l, Nzeta 
   4.071      2.905   
   1.000      1.000   
 n=2   1   2 P   1                   # n, l, Nzeta, Polarization, NzetaPol
   4.973      3.054   
   1.000      1.000   
%endblock PAO.Basis

prinput: ----------------------------------------------------------------------

coor:   Atomic-coordinates input format  =     Cartesian coordinates
coor:                                          (in Angstroms)

siesta: Atomic coordinates (Bohr) and species
siesta:      2.23554   1.32097   0.00000  1        1
siesta:      4.56367   2.66461   0.00000  1        2
siesta:     32.50328  21.48508   0.00000  1        3
siesta:     34.83141  22.82873   0.00000  1        4
siesta:     34.83116  17.45226   0.00000  1        5
siesta:     37.15930  18.79590   0.00000  1        6
siesta:     32.50291  13.41944   0.00000  1        7
siesta:     34.83104  14.76308   0.00000  1        8
siesta:     30.17465   9.38661   0.00000  1        9
siesta:     32.50278  10.73026   0.00000  1       10
siesta:     27.84639   5.35379   0.00000  1       11
siesta:     30.17453   6.69743   0.00000  1       12
siesta:     27.84714  21.48508   0.00000  1       13
siesta:     30.17527  22.82873   0.00000  1       14
siesta:      6.89168   1.32097   0.00000  1       15
siesta:      9.21981   2.66461   0.00000  1       16
siesta:     11.54782   1.32097   0.00000  1       17
siesta:     13.87595   2.66461   0.00000  1       18
siesta:     16.20396   1.32097   0.00000  1       19
siesta:     23.19013   2.66461   0.00000  1       20
siesta:     25.51813   1.32097   0.00000  1       21
siesta:     27.84627   2.66461   0.00000  1       22
siesta:      6.89193   6.69743   0.00000  1       23
siesta:      9.21994   5.35379   0.00000  1       24
siesta:     11.54807   6.69743   0.00000  1       25
siesta:     13.87608   5.35379   0.00000  1       26
siesta:     16.20421   6.69743   0.00000  1       27
siesta:     18.53411   5.35379   0.00000  1       28
siesta:     20.86224   6.69743   0.00000  1       29
siesta:     23.19025   5.35379   0.00000  1       30
siesta:     25.51838   6.69743   0.00000  1       31
siesta:      9.22019  10.73026   0.00000  1       32
siesta:     11.54820   9.38661   0.00000  1       33
siesta:     13.87633  10.73026   0.00000  1       34
siesta:     18.53247  10.73026   0.00000  1       35
siesta:     20.86237   9.38661   0.00000  1       36
siesta:     23.19050  10.73026   0.00000  1       37
siesta:      9.22031  13.41944   0.00000  1       38
siesta:     11.54845  14.76308   0.00000  1       39
siesta:     13.87645  13.41944   0.00000  1       40
siesta:     16.20459  14.76308   0.00000  1       41
siesta:     18.53448  13.41944   0.00000  1       42
siesta:     20.86262  14.76308   0.00000  1       43
siesta:     13.87670  18.79590   0.00000  1       44
siesta:     16.20471  17.45226   0.00000  1       45
siesta:     18.53284  18.79590   0.00000  1       46
siesta:     13.87683  21.48508   0.00000  1       47
siesta:     16.20496  22.82873   0.00000  1       48
siesta:     18.53486  21.48508   0.00000  1       49
siesta:     20.86299  22.82873   0.00000  1       50
siesta:     27.84664  10.73026   0.00000  1       51
siesta:     23.19063  13.41944   0.00000  1       52
siesta:     25.51876  14.76308   0.00000  1       53
siesta:     23.19088  18.79590   0.00000  1       54
siesta:     27.84677  13.41944   0.00000  1       55
siesta:     30.17490  14.76308   0.00000  1       56
siesta:     25.51888  17.45226   0.00000  1       57
siesta:     27.84702  18.79590   0.00000  1       58
siesta:     23.19100  21.48508   0.00000  1       59
siesta:     25.51913  22.82873   0.00000  1       60
siesta:     32.50316  18.79590   0.00000  1       61
siesta:     37.16131  21.48508   0.00000  1       62
siesta:     39.48945  22.82873   0.00000  1       63
siesta:     18.53210   2.66461   0.00000  2       64
siesta:     20.86199   1.32097   0.00000  2       65
siesta:      4.56380   5.35379   0.00000  2       66
siesta:      6.89205   9.38661   0.00000  2       67
siesta:     16.20434   9.38661   0.00000  2       68
siesta:     11.54857  17.45226   0.00000  2       69
siesta:     25.51851   9.38661   0.00000  2       70
siesta:     20.86274  17.45226   0.00000  2       71
siesta:     30.17503  17.45226   0.00000  2       72

siesta: System type = slab      

initatomlists: Number of atoms, orbitals, and projectors:     72   936  1152

siesta: ******************** Simulation parameters ****************************
siesta:
siesta: The following are some of the parameters of the simulation.
siesta: A complete list of the parameters used, including default values,
siesta: can be found in file out.fdf
siesta:
redata: Non-Collinear-spin run           =     F
redata: SpinPolarized (Up/Down) run      =     F
redata: Number of spin components        =     1
redata: Long output                      =     F
redata: Number of Atomic Species         =        2
redata: Charge density info will appear in .RHO file
redata: Write Mulliken Pop.              =     NO
redata: Mesh Cutoff                      =   200.0000  Ry
redata: Net charge of the system         =     0.0000 |e|
redata: Max. number of SCF Iter          =      500
redata: SCF convergence failure will abort job
redata: Performing Pulay mixing using    =    10 iterations
redata: Mix DM in first SCF step ?       =     F
redata: Write Pulay info on disk?        =     F
redata: Discard 1st Pulay DM after  kick =     F
redata: New DM Mixing Weight             =     0.0500
redata: New DM Occupancy tolerance       = 0.000000000001
redata: No kicks to SCF
redata: DM Mixing Weight for Kicks       =     0.5000
redata: DM Tolerance for SCF             =     0.000100
redata: Require Energy convergence for SCF =     F
redata: DM Energy tolerance for SCF      =     0.000100 eV
redata: Require Harris convergence for SCF =     F
redata: DM Harris energy tolerance for SCF =     0.000100 eV
redata: Using Saved Data (generic)   =     F
redata: Use continuation files for DM    =     T
redata: Neglect nonoverlap interactions  =     F
redata: Method of Calculation            =     Diagonalization
redata: Divide and Conquer               =     T
redata: Electronic Temperature           =     0.0019  Ry
redata: Fix the spin of the system       =     F
redata: Dynamics option                  =     Verlet MD run
redata: Initial MD time step             =        1
redata:   Final MD time step             =        1
redata: Length of MD time step           =     1.0000  fs
redata: Initial Temperature of MD run    =     0.0000  K
redata: Perform a MD quench              =     F
redata: ***********************************************************************
Total number of electrons:   297.000000
Total ionic charge:   297.000000

* ProcessorY, Blocksize:    2  24

k-point displ. along   1 input, could be:     0.00    0.50
k-point displ. along   2 input, could be:     0.00    0.50
 Kpoints in:          364 . Kpoints trimmed:          352

siesta: k-grid: Number of k-points =   352
siesta: k-grid: Cutoff (effective) =     5.000 Ang
siesta: k-grid: Supercell and displacements
siesta: k-grid:   26   0   0      0.000
siesta: k-grid:    0  26   0      0.000
siesta: k-grid:    0   0   1      0.000
Naive supercell factors:     2    2    2

superc: Internal auxiliary supercell:     2 x     2 x     2  =       8
superc: Number of atoms, orbitals, and projectors:    576   7488   9216

* Maximum dynamic memory allocated =     6 MB

siesta:                 ==============================
                            Begin MD step =      1
                        ==============================

superc: Internal auxiliary supercell:     2 x     2 x     2  =       8
superc: Number of atoms, orbitals, and projectors:    576   7488   9216

outcell: Unit cell vectors (Ang):
       14.785000    0.000000    0.000000
        7.393000   12.805052    0.000000
        0.000000    0.000000   10.000000

outcell: Cell vector modules (Ang)   :   14.785000   14.786000   10.000000
outcell: Cell angles (23,13,12) (deg):     90.0000     90.0000     60.0000
outcell: Cell volume (Ang**3)        :   1893.2269
New_DM. Step:     1
Initializing Density Matrix...

InitMesh: MESH =   120 x   120 x    90 =     1296000
InitMesh: Mesh cutoff (required, used) =   200.000   223.865 Ry

* Maximum dynamic memory allocated =   187 MB

stepf: Fermi-Dirac step function

siesta: Program's energy decomposition (eV):
siesta: Ebs     =     -4702.361916
siesta: Eions   =     19849.732669
siesta: Ena     =      4064.279221
siesta: Ekin    =      7133.479856
siesta: Enl     =       -33.665032
siesta: DEna    =        -0.000012
siesta: DUscf   =         0.000000
siesta: DUext   =         0.000000
siesta: Exc     =     -4161.692476
siesta: eta*DQ  =         0.000000
siesta: Emadel  =         0.000000
siesta: Emeta   =         0.000000
siesta: Emolmec =         0.000000
siesta: Ekinion =         0.000000
siesta: Eharris =    -12754.476061
siesta: Etot    =    -12847.331112
siesta: FreeEng =    -12847.331112

siesta: iscf   Eharris(eV)      E_KS(eV)   FreeEng(eV)   dDmax  Ef(eV)
siesta:    1   -12754.4761   -12847.3311   -12847.3311  1.9426 -4.8340
timer: Routine,Calls,Time,% = IterSCF        1    6648.357  99.83
elaps: Routine,Calls,Wall,% = IterSCF        1     832.414  99.87
siesta:    2   -12776.2360   -12724.2493   -12724.2845  0.4763 -3.4359
siesta:    3   -12752.1468   -12745.1620   -12745.1927  0.3888 -3.2935
siesta:    4   -12747.2713   -12742.6150   -12742.6434  0.3251 -3.2466
siesta:    5   -12740.1311   -12739.8129   -12739.8404  0.1949 -3.1572
siesta:    6   -12739.5122   -12739.0561   -12739.0888  0.1232 -3.1536
siesta:    7   -12739.3417   -12737.5469   -12737.5867  0.0730 -3.2096
siesta:    8   -12739.2948   -12737.0835   -12737.1223  0.0610 -3.2909
siesta:    9   -12739.0571   -12736.9574   -12736.9965  0.0273 -3.4224
siesta:   10   -12738.9376   -12737.2032   -12737.2455  0.0149 -3.4423
siesta:   11   -12738.8922   -12737.4272   -12737.4699  0.0095 -3.4458
siesta:   12   -12738.8816   -12737.7387   -12737.7815  0.0078 -3.4496
siesta:   13   -12738.8809   -12737.8935   -12737.9362  0.0084 -3.4508
siesta:   14   -12738.8802   -12738.1517   -12738.1943  0.0069 -3.4518
siesta:   15   -12738.8797   -12738.6180   -12738.6605  0.0026 -3.4456
siesta:   16   -12738.8797   -12738.7162   -12738.7588  0.0014 -3.4428
siesta:   17   -12738.8796   -12738.7779   -12738.8204  0.0006 -3.4422
siesta:   18   -12738.8794   -12738.8501   -12738.8925  0.0003 -3.4421
siesta:   19   -12738.8794   -12738.8759   -12738.9184  0.0002 -3.4420
siesta:   20   -12738.8794   -12738.8827   -12738.9252  0.0002 -3.4419
siesta:   21   -12738.8794   -12738.8838   -12738.9263  0.0001 -3.4418
siesta:   22   -12738.8794   -12738.8837   -12738.9262  0.0001 -3.4417
siesta:   23   -12738.8794   -12738.8823   -12738.9248  0.0001 -3.4419

siesta: E_KS(eV) =           -12738.8798

siesta: E_KS - E_eggbox =    -12738.8798

siesta: Atomic forces (eV/Ang):
----------------------------------------
   Tot    0.202338   -0.297637    0.000000
----------------------------------------
   Max    1.197842
   Res    0.315042    sqrt( Sum f_i^2 / 3N )
----------------------------------------
   Max    1.197842    constrained

Stress-tensor-Voigt (kbar):       -0.42       -0.12        0.14        0.67        0.00        0.00
(Free)E + p*V (eV/cell)   -12738.7657
Target enthalpy (eV/cell)   -12738.9223

siesta: Stress tensor (static) (eV/Ang**3):
        -0.000265    0.000416    0.000000
         0.000416   -0.000072    0.000000
         0.000000    0.000000    0.000089

siesta: Pressure (static):          0.13254362  kBar

siesta: Stress tensor (total) (eV/Ang**3):
        -0.000265    0.000416    0.000000
         0.000416   -0.000072    0.000000
         0.000000    0.000000    0.000089

siesta: Pressure (total):          0.13254362  kBar

siesta: Temp_ion =       0.000 K

* Maximum dynamic memory allocated =   203 MB

siesta: Program's energy decomposition (eV):
siesta: Ebs     =     -4185.422613
siesta: Eions   =     19849.732669
siesta: Ena     =      4064.279221
siesta: Ekin    =      8580.102619
siesta: Enl     =     -1058.342687
siesta: DEna    =      -247.546185
siesta: DUscf   =        22.695813
siesta: DUext   =         0.000000
siesta: Exc     =     -4250.335917
siesta: eta*DQ  =         0.000000
siesta: Emadel  =         0.000000
siesta: Emeta   =         0.000000
siesta: Emolmec =         0.000000
siesta: Ekinion =         0.000000
siesta: Eharris =    -12738.879400
siesta: Etot    =    -12738.879804
siesta: FreeEng =    -12738.922319

siesta: Final energy (eV):
siesta:  Band Struct. =   -4185.422613
siesta:       Kinetic =    8580.102619
siesta:       Hartree =   24803.846139
siesta:    Ext. field =       0.000000
siesta:   Exch.-corr. =   -4250.335917
siesta:  Ion-electron =  -57584.495131
siesta:       Ion-ion =   15712.002485
siesta:       Ekinion =       0.000000
siesta:         Total =  -12738.879804

siesta: Atomic forces (eV/Ang):
siesta:      1    0.239718    0.499707    0.000000
siesta:      2   -0.039272    0.328052    0.000000
siesta:      3    0.424199   -0.450575    0.000000
siesta:      4   -0.614809    0.381665    0.000000
siesta:      5    0.106477   -0.537768    0.000000
siesta:      6    0.197201    0.016617    0.000000
siesta:      7    0.274999   -0.086965    0.000000
siesta:      8    0.003722    0.168733    0.000000
siesta:      9    0.273049   -0.096006    0.000000
siesta:     10    0.101771    0.164702    0.000000
siesta:     11    0.689462    0.591942    0.000000
siesta:     12    0.356731   -0.980682    0.000000
siesta:     13    0.420246   -0.319214    0.000000
siesta:     14   -0.230380    1.197842    0.000000
siesta:     15   -0.109423    0.063261    0.000000
siesta:     16    0.312723   -0.307489    0.000000
siesta:     17   -0.240944    0.057491    0.000000
siesta:     18    0.873289    0.060096    0.000000
siesta:     19    0.621793   -0.732872    0.000000
siesta:     20   -0.781892    0.255702    0.000000
siesta:     21   -0.256689   -0.255112    0.000000
siesta:     22   -0.620801   -0.090610    0.000000
siesta:     23   -0.404795    0.122757    0.000000
siesta:     24   -0.491864    0.609232    0.000000
siesta:     25    0.156910   -0.643742    0.000000
siesta:     26   -0.439972    0.729502    0.000000
siesta:     27    0.197801    0.126416    0.000000
siesta:     28    0.677525   -0.017167    0.000000
siesta:     29   -0.811425   -0.520899    0.000000
siesta:     30    0.292251   -0.197607    0.000000
siesta:     31   -0.057807    0.510488    0.000000
siesta:     32   -0.034301   -0.515273    0.000000
siesta:     33    0.016536    0.355647    0.000000
siesta:     34    0.095635   -0.455789    0.000000
siesta:     35   -0.177437   -0.069700    0.000000
siesta:     36   -0.117491   -0.181261    0.000000
siesta:     37    0.061500   -0.150026    0.000000
siesta:     38   -0.237670    0.321877    0.000000
siesta:     39   -0.109215    0.071193    0.000000
siesta:     40    0.361809    0.353925    0.000000
siesta:     41   -0.065373   -0.054053    0.000000
siesta:     42   -0.338569    0.061688    0.000000
siesta:     43    0.104288    0.362408    0.000000
siesta:     44   -0.259572   -0.179629    0.000000
siesta:     45   -0.173666   -0.293901    0.000000
siesta:     46    0.632333    0.003867    0.000000
siesta:     47   -0.743282   -0.194132    0.000000
siesta:     48    0.416263   -0.199426    0.000000
siesta:     49    0.199084   -0.443632    0.000000
siesta:     50   -0.216364    0.458471    0.000000
siesta:     51   -0.286933   -0.761180    0.000000
siesta:     52    0.260319    0.171821    0.000000
siesta:     53   -0.051659   -0.126171    0.000000
siesta:     54   -0.551878   -0.094418    0.000000
siesta:     55   -0.117373    0.447824    0.000000
siesta:     56   -0.093972    0.237324    0.000000
siesta:     57    0.124207   -0.207021    0.000000
siesta:     58    0.209419    0.106244    0.000000
siesta:     59   -0.142820   -0.313244    0.000000
siesta:     60   -0.164167   -0.366394    0.000000
siesta:     61   -0.429018    0.320340    0.000000
siesta:     62    0.054908    0.042182    0.000000
siesta:     63    0.429204    0.031504    0.000000
siesta:     64   -0.820034    0.509740    0.000000
siesta:     65    0.842750   -0.460030    0.000000
siesta:     66    0.076889    0.957768    0.000000
siesta:     67   -0.324865   -0.457883    0.000000
siesta:     68    0.208330   -0.016899    0.000000
siesta:     69   -0.018407    0.040068    0.000000
siesta:     70    0.232374    0.102413    0.000000
siesta:     71   -0.021406   -0.128621    0.000000
siesta:     72    0.252170   -0.232756    0.000000
siesta: ----------------------------------------
siesta:    Tot    0.202338   -0.297637    0.000000

siesta: Stress tensor (static) (eV/Ang**3):
siesta:    -0.000265    0.000416    0.000000
siesta:     0.000416   -0.000072    0.000000
siesta:     0.000000    0.000000    0.000089

siesta: Cell volume =       1893.226895 Ang**3

siesta: Pressure (static):
siesta:                Solid            Molecule  Units
siesta:           0.00000090         -0.00001378  Ry/Bohr**3
siesta:           0.00008273         -0.00126482  eV/Ang**3
siesta:           0.13254362         -2.02648773  kBar
(Free)E+ p_basis*V_orbitals  =      -12709.471372
(Free)Eharris+ p_basis*V_orbitals  =      -12709.468446

siesta: Electric dipole (a.u.)  =    0.000000    0.000000    0.000000
siesta: Electric dipole (Debye) =    0.000000    0.000000    0.000000

* Maximum dynamic memory allocated : Node    0 =   203 MB
* Maximum dynamic memory allocated : Node    1 =    74 MB
* Maximum dynamic memory allocated : Node    2 =    76 MB
* Maximum dynamic memory allocated : Node    3 =   192 MB
* Maximum dynamic memory allocated : Node    4 =   202 MB
* Maximum dynamic memory allocated : Node    5 =    74 MB
* Maximum dynamic memory allocated : Node    6 =    75 MB
* Maximum dynamic memory allocated : Node    7 =   187 MB

* Maximum memory occured during matrixMtoO                    

timer: CPU execution times:
timer:  Routine       Calls   Time/call    Tot.time        %
timer:  siesta            1  151398.191  151398.191   100.00
timer:  Setup             1       3.837       3.837     0.00
timer:  bands             1       0.019       0.019     0.00
timer:  writewave         1       0.043       0.043     0.00
timer:  KSV_init          1       0.006       0.006     0.00
timer:  IterMD            1  151386.413  151386.413    99.99
timer:  hsparse           1       0.260       0.260     0.00
timer:  overlap           1       6.339       6.339     0.00
timer:  IterSCF          23    6574.874  151222.093    99.88
timer:  kinefsm           2       3.263       6.525     0.00
timer:  nlefsm            2      18.744      37.487     0.02
timer:  DHSCF            24      93.926    2254.231     1.49
timer:  DHSCF1            1       0.761       0.761     0.00
timer:  DHSCF2            1      32.813      32.813     0.02
timer:  REORD           194       0.010       1.938     0.00
timer:  POISON           25       2.248      56.212     0.04
timer:  DHSCF3           24      91.186    2188.461     1.45
timer:  rhoofd           24      16.780     402.717     0.27
timer:  cellXC           24       3.559      85.411     0.06
timer:  vmat             24      45.648    1095.559     0.72
timer:  MolMec            2       0.000       0.000     0.00
timer:  diagon           23    6478.816  149012.772    98.42
timer:  c-eigval       8096       6.694   54194.705    35.80
timer:  c-buildHS      8096       0.117     948.557     0.63
timer:  cdiag         16192       6.881  111409.938    73.59
timer:  cdiag1        16192       0.428    6922.136     4.57
timer:  cdiag2        16192       1.916   31025.444    20.49
timer:  cdiag3        16192       3.957   64070.403    42.32
timer:  cdiag4        16192       0.203    3291.630     2.17
timer:  c-eigvec       8096       7.256   58746.344    38.80
timer:  c-buildD       8096       4.447   36003.548    23.78
timer:  DHSCF4            1      30.887      30.887     0.02
timer:  dfscf             1      29.061      29.061     0.02
timer:  overfsm           1       0.377       0.377     0.00
timer:  optical           1       6.988       6.988     0.00
  

elaps: ELAPSED times:
elaps:  Routine       Calls   Time/call    Tot.time        %
elaps:  siesta            1   18946.438   18946.438   100.00
elaps:  Setup             1       0.495       0.495     0.00
elaps:  bands             1       0.002       0.002     0.00
elaps:  writewave         1       0.006       0.006     0.00
elaps:  KSV_init          1       0.001       0.001     0.00
elaps:  IterMD            1   18944.942   18944.942    99.99
elaps:  hsparse           1       0.032       0.032     0.00
elaps:  overlap           1       0.524       0.524     0.00
elaps:  IterSCF          23     822.819   18924.832    99.89
elaps:  kinefsm           2       0.275       0.550     0.00
elaps:  nlefsm            2       2.455       4.910     0.03
elaps:  DHSCF            24      11.883     285.183     1.51
elaps:  DHSCF1            1       0.098       0.098     0.00
elaps:  DHSCF2            1       4.099       4.099     0.02
elaps:  REORD           194       0.001       0.269     0.00
elaps:  POISON           25       0.280       7.002     0.04
elaps:  DHSCF3           24      11.408     273.788     1.45
elaps:  rhoofd           24       3.579      85.888     0.45
elaps:  cellXC           24       0.444      10.667     0.06
elaps:  vmat             24       5.711     137.059     0.72
elaps:  MolMec            2       0.000       0.000     0.00
elaps:  diagon           23     810.798   18648.346    98.43
elaps:  c-eigval       8096       0.838    6780.598    35.79
elaps:  c-buildHS      8096       0.016     130.816     0.69
elaps:  cdiag         16192       0.848   13723.012    72.43
elaps:  cdiag1        16192       0.053     856.444     4.52
elaps:  cdiag2        16192       0.240    3882.080    20.49
elaps:  cdiag3        16192       0.496    8027.027    42.37
elaps:  cdiag4        16192       0.026     424.896     2.24
elaps:  c-eigvec       8096       0.885    7164.514    37.81
elaps:  c-buildD       8096       0.580    4693.554    24.77
elaps:  DHSCF4            1       7.019       7.019     0.04
elaps:  dfscf             1       6.641       6.641     0.04
elaps:  overfsm           1       0.049       0.049     0.00
elaps:  optical           1       0.001       0.001     0.00
  
>> End of run:   1-DEC-2015  12:30:27
