Siesta Version:                                        siesta-3.2-pl-3
Architecture  : x86_64-unknown-linux-gnu--unknown
Compiler flags: mpiifort -g -O2 -fPIC -xSSE4.1 -fp-model source -shared-intel 
PARALLEL version

* Running on    8 nodes in parallel
>> Start of run:  28-NOV-2015  19:07:50

                           ***********************       
                           *  WELCOME TO SIESTA  *       
                           ***********************       

reinit: Reading from standard input
************************** Dump of input data file ****************************
#(1) General system descriptors
SystemName            GRP_doping    # Descriptive name of the system
SystemLabel           GRP_doping    # Short name for naming files
%include STRUCT.fdf
%include KPT.fdf
%include BASIS.fdf
#%include TS.fdf # for transiesta calculation
#(4) DFT, Grid, SCF
XC.functional         GGA           # LDA or GGA (default = LDA)
XC.authors            PBE           # CA (Ceperley-Aldr) = PZ
                                    #    (Perdew-Zunger) - LDA - Default
                                    # PW92 (Perdew-Wang-92) - LDA
                                    # PBE (Perdew-Burke-Ernzerhof) - GGA
MeshCutoff            200.000000    Ry      # Default: 50.0 Ry ~ 0.444 Bohr
                                    #         100.0 Ry ~ 0.314 Bohr
MaxSCFIterations      500           # Default: 50
DM.MixingWeight       0.05          # Default: 0.25
DM.NumberPulay        10            # Default: 0
DM.PulayOnFile        F             # SystemLabel.P1, SystemLabel.P2
DM.Tolerance          1.d-4         # Default: 1.d-4
DM.UseSaveDM          .true.        # because of the bug
SCFMustConverge       .true.
NeglNonOverlapInt     F             # Default: F
#(5) Eigenvalue problem: order-N or diagonalization
SolutionMethod        Diagon        # or Transiesta
ElectronicTemperature 300.0 K       # Default: 300.0 K
#(6) Molecular dynamics and relaxations
#MD.TypeOfRun          CG            # Type of dynamics:
#MD.VariableCell       F
#MD.NumCGsteps         0           # 0 for single-point / 100 for gopt
#MD.MaxCGDispl         0.2 Bohr      # Default: 0.2 Bohr
#MD.MaxForceTol        0.02 eV/Ang   # Default: 0.04 eV/Ang
#MD.MaxStressTol       1.0 GPa       # Default: 1.0 GPa
# Geometry Constraints
#%block GeometryConstraints
#	position from 1 to 44
#%endblock GeometryConstraints
************************** End of input data file *****************************

reinit: -----------------------------------------------------------------------
reinit: System Name: GRP_doping
reinit: -----------------------------------------------------------------------
reinit: System Label: GRP_doping                                                  
reinit: -----------------------------------------------------------------------

initatom: Reading input for the pseudopotentials and atomic orbitals ----------
 Species number:            1  Label: C Atomic number:           6
 Species number:            2  Label: B Atomic number:           5
Ground state valence configuration:   2s02  2p02
Reading pseudopotential information in formatted form from C.psf

Valence configuration for pseudopotential generation:
2s( 2.00) rc: 1.54
2p( 2.00) rc: 1.54
3d( 0.00) rc: 1.54
4f( 0.00) rc: 1.54
Ground state valence configuration:   2s02  2p01
Reading pseudopotential information in formatted form from B.psf

Valence configuration for pseudopotential generation:
2s( 2.00) rc: 1.74
2p( 1.00) rc: 1.74
3d( 0.00) rc: 1.74
4f( 0.00) rc: 1.74
For C, standard SIESTA heuristics set lmxkb to 3
 (one more than the basis l, including polarization orbitals).
Use PS.lmax or PS.KBprojectors blocks to override.
For B, standard SIESTA heuristics set lmxkb to 3
 (one more than the basis l, including polarization orbitals).
Use PS.lmax or PS.KBprojectors blocks to override.

<basis_specs>
===============================================================================
C                    Z=   6    Mass=  12.010        Charge= 0.17977+309
Lmxo=1 Lmxkb= 3    BasisType=split      Semic=F
L=0  Nsemic=0  Cnfigmx=2
          n=1  nzeta=2  polorb=0
            splnorm:   0.15000    
               vcte:    0.0000    
               rinn:    0.0000    
                rcs:    0.0000      0.0000    
            lambdas:    1.0000      1.0000    
L=1  Nsemic=0  Cnfigmx=2
          n=1  nzeta=2  polorb=1
            splnorm:   0.15000    
               vcte:    0.0000    
               rinn:    0.0000    
                rcs:    0.0000      0.0000    
            lambdas:    1.0000      1.0000    
-------------------------------------------------------------------------------
L=0  Nkbl=1  erefs: 0.17977+309
L=1  Nkbl=1  erefs: 0.17977+309
L=2  Nkbl=1  erefs: 0.17977+309
L=3  Nkbl=1  erefs: 0.17977+309
===============================================================================
</basis_specs>

atom: Called for C                     (Z =   6)

read_vps: Pseudopotential generation method:
read_vps: ATM3      Troullier-Martins                       
Total valence charge:    4.00000

read_vps: Pseudopotential includes a core correction:
read_vps: Pseudo-core for xc-correction

xc_check: Exchange-correlation functional:
xc_check: GGA Perdew, Burke & Ernzerhof 1996
V l=0 = -2*Zval/r beyond r=  1.5227
V l=1 = -2*Zval/r beyond r=  1.5227
V l=2 = -2*Zval/r beyond r=  1.5227
V l=3 = -2*Zval/r beyond r=  1.5038
All V_l potentials equal beyond r=  1.5227
This should be close to max(r_c) in ps generation
All pots = -2*Zval/r beyond r=  1.5227

VLOCAL1: 99.0% of the norm of Vloc inside     18.722 Ry
VLOCAL1: 99.9% of the norm of Vloc inside     42.668 Ry
atom: Maximum radius for 4*pi*r*r*local-pseudopot. charge    1.83678
atom: Maximum radius for r*vlocal+2*Zval:    1.58088
GHOST: No ghost state for L =  0
GHOST: No ghost state for L =  1
GHOST: No ghost state for L =  2
GHOST: No ghost state for L =  3

KBgen: Kleinman-Bylander projectors: 
   l= 0   rc=  1.704034   el= -1.009801   Ekb=  5.335044   kbcos=  0.316824
   l= 1   rc=  1.704034   el= -0.388707   Ekb= -3.785862   kbcos= -0.366464
   l= 2   rc=  1.791422   el=  0.001971   Ekb= -0.970471   kbcos= -0.009212
   l= 3   rc=  1.859892   el=  0.003065   Ekb= -0.399525   kbcos= -0.001223

KBgen: Total number of  Kleinman-Bylander projectors:   16
atom: -------------------------------------------------------------------------

atom: SANKEY-TYPE ORBITALS:
atom: Selected multiple-zeta basis: split     

SPLIT: Orbitals with angular momentum L= 0

SPLIT: Basis orbitals for state 2s

SPLIT: PAO cut-off radius determined from an
SPLIT: energy shift=  0.007350 Ry

   izeta = 1
                 lambda =    1.000000
                     rc =    4.632753
                 energy =   -1.002270
                kinetic =    0.855760
    potential(screened) =   -1.858031
       potential(ionic) =   -5.417575

   izeta = 2
                 rmatch =    3.431921
              splitnorm =    0.150000
                 energy =   -0.867111
                kinetic =    1.300804
    potential(screened) =   -2.167915
       potential(ionic) =   -5.962684

SPLIT: Orbitals with angular momentum L= 1

SPLIT: Basis orbitals for state 2p

SPLIT: PAO cut-off radius determined from an
SPLIT: energy shift=  0.007350 Ry

   izeta = 1
                 lambda =    1.000000
                     rc =    5.658549
                 energy =   -0.381140
                kinetic =    2.399701
    potential(screened) =   -2.780841
       potential(ionic) =   -6.206085

   izeta = 2
                 rmatch =    3.653288
              splitnorm =    0.150000
                 energy =   -0.249149
                kinetic =    3.542762
    potential(screened) =   -3.791911
       potential(ionic) =   -7.581078

POLgen: Perturbative polarization orbital with L=  2

POLgen: Polarization orbital for state 2p

   izeta = 1
                     rc =    5.658549
                 energy =    1.109913
                kinetic =    2.304789
    potential(screened) =   -1.194876
       potential(ionic) =   -4.013592
atom: Total number of Sankey-type orbitals: 13

atm_pop: Valence configuration (for local Pseudopot. screening):
 2s( 2.00)                                                            
 2p( 2.00)                                                            
Vna: chval, zval:    4.00000   4.00000

Vna:  Cut-off radius for the neutral-atom potential:   5.658549
comcore: Pseudo-core radius Rcore=  1.791422

atom: _________________________________________________________________________

<basis_specs>
===============================================================================
B                    Z=   5    Mass=  10.810        Charge= 0.17977+309
Lmxo=1 Lmxkb= 3    BasisType=split      Semic=F
L=0  Nsemic=0  Cnfigmx=2
          n=1  nzeta=2  polorb=0
            splnorm:   0.15000    
               vcte:    0.0000    
               rinn:    0.0000    
                rcs:    0.0000      0.0000    
            lambdas:    1.0000      1.0000    
L=1  Nsemic=0  Cnfigmx=2
          n=1  nzeta=2  polorb=1
            splnorm:   0.15000    
               vcte:    0.0000    
               rinn:    0.0000    
                rcs:    0.0000      0.0000    
            lambdas:    1.0000      1.0000    
-------------------------------------------------------------------------------
L=0  Nkbl=1  erefs: 0.17977+309
L=1  Nkbl=1  erefs: 0.17977+309
L=2  Nkbl=1  erefs: 0.17977+309
L=3  Nkbl=1  erefs: 0.17977+309
===============================================================================
</basis_specs>

atom: Called for B                     (Z =   5)

read_vps: Pseudopotential generation method:
read_vps: ATM3      Troullier-Martins                       
Total valence charge:    3.00000

read_vps: Pseudopotential includes a core correction:
read_vps: Pseudo-core for xc-correction

xc_check: Exchange-correlation functional:
xc_check: GGA Perdew, Burke & Ernzerhof 1996
V l=0 = -2*Zval/r beyond r=  1.7165
V l=1 = -2*Zval/r beyond r=  1.7165
V l=2 = -2*Zval/r beyond r=  1.7165
V l=3 = -2*Zval/r beyond r=  1.6951
All V_l potentials equal beyond r=  1.7165
This should be close to max(r_c) in ps generation
All pots = -2*Zval/r beyond r=  1.7165

VLOCAL1: 99.0% of the norm of Vloc inside     14.733 Ry
VLOCAL1: 99.9% of the norm of Vloc inside     33.577 Ry
atom: Maximum radius for 4*pi*r*r*local-pseudopot. charge    2.04484
atom: Maximum radius for r*vlocal+2*Zval:    1.75994
GHOST: No ghost state for L =  0
GHOST: No ghost state for L =  1
GHOST: No ghost state for L =  2
GHOST: No ghost state for L =  3

KBgen: Kleinman-Bylander projectors: 
   l= 0   rc=  1.897051   el= -0.693730   Ekb=  4.595746   kbcos=  0.286105
   l= 1   rc=  1.920920   el= -0.265236   Ekb= -2.350715   kbcos= -0.315747
   l= 2   rc=  2.044840   el=  0.002055   Ekb= -0.690767   kbcos= -0.013822
   l= 3   rc=  2.149707   el=  0.003188   Ekb= -0.315358   kbcos= -0.002055

KBgen: Total number of  Kleinman-Bylander projectors:   16
atom: -------------------------------------------------------------------------

atom: SANKEY-TYPE ORBITALS:
atom: Selected multiple-zeta basis: split     

SPLIT: Orbitals with angular momentum L= 0

SPLIT: Basis orbitals for state 2s

SPLIT: PAO cut-off radius determined from an
SPLIT: energy shift=  0.007350 Ry

   izeta = 1
                 lambda =    1.000000
                     rc =    5.422032
                 energy =   -0.686029
                kinetic =    0.576707
    potential(screened) =   -1.262736
       potential(ionic) =   -3.271094

   izeta = 2
                 rmatch =    4.222573
              splitnorm =    0.150000
                 energy =   -0.602132
                kinetic =    0.858975
    potential(screened) =   -1.461107
       potential(ionic) =   -3.582536

SPLIT: Orbitals with angular momentum L= 1

SPLIT: Basis orbitals for state 2p

SPLIT: PAO cut-off radius determined from an
SPLIT: energy shift=  0.007350 Ry

   izeta = 1
                 lambda =    1.000000
                     rc =    6.790259
                 energy =   -0.258578
                kinetic =    1.481412
    potential(screened) =   -1.739989
       potential(ionic) =   -3.657461

   izeta = 2
                 rmatch =    4.608740
              splitnorm =    0.150000
                 energy =   -0.173757
                kinetic =    2.186690
    potential(screened) =   -2.360447
       potential(ionic) =   -4.464260

POLgen: Perturbative polarization orbital with L=  2

POLgen: Polarization orbital for state 2p

   izeta = 1
                     rc =    6.790259
                 energy =    0.684082
                kinetic =    1.471481
    potential(screened) =   -0.787399
       potential(ionic) =   -2.406985
atom: Total number of Sankey-type orbitals: 13

atm_pop: Valence configuration (for local Pseudopot. screening):
 2s( 2.00)                                                            
 2p( 1.00)                                                            
Vna: chval, zval:    3.00000   3.00000

Vna:  Cut-off radius for the neutral-atom potential:   6.790259
comcore: Pseudo-core radius Rcore=  2.122997

atom: _________________________________________________________________________

prinput: Basis input ----------------------------------------------------------

PAO.BasisType split     

%block ChemicalSpeciesLabel
    1    6 C                       # Species index, atomic number, species label
    2    5 B                       # Species index, atomic number, species label
%endblock ChemicalSpeciesLabel

%block PAO.Basis                 # Define Basis set
C                     2                    # Species label, number of l-shells
 n=2   0   2                         # n, l, Nzeta 
   4.633      3.432   
   1.000      1.000   
 n=2   1   2 P   1                   # n, l, Nzeta, Polarization, NzetaPol
   5.659      3.653   
   1.000      1.000   
B                     2                    # Species label, number of l-shells
 n=2   0   2                         # n, l, Nzeta 
   5.422      4.223   
   1.000      1.000   
 n=2   1   2 P   1                   # n, l, Nzeta, Polarization, NzetaPol
   6.790      4.609   
   1.000      1.000   
%endblock PAO.Basis

prinput: ----------------------------------------------------------------------

coor:   Atomic-coordinates input format  =     Cartesian coordinates
coor:                                          (in Angstroms)

siesta: Atomic coordinates (Bohr) and species
siesta:      2.23554   1.32097   0.00000  1        1
siesta:     32.50328  21.48508   0.00000  1        2
siesta:     34.83141  22.82873   0.00000  1        3
siesta:     37.15930  18.79590   0.00000  1        4
siesta:     32.50291  13.41944   0.00000  1        5
siesta:     34.83104  14.76308   0.00000  1        6
siesta:     30.17465   9.38661   0.00000  1        7
siesta:     32.50278  10.73026   0.00000  1        8
siesta:     27.84639   5.35379   0.00000  1        9
siesta:     30.17453   6.69743   0.00000  1       10
siesta:     27.84714  21.48508   0.00000  1       11
siesta:     30.17527  22.82873   0.00000  1       12
siesta:      6.89168   1.32097   0.00000  1       13
siesta:      9.21981   2.66461   0.00000  1       14
siesta:     13.87595   2.66461   0.00000  1       15
siesta:     16.20396   1.32097   0.00000  1       16
siesta:     18.53210   2.66461   0.00000  1       17
siesta:     23.19013   2.66461   0.00000  1       18
siesta:     25.51813   1.32097   0.00000  1       19
siesta:     27.84627   2.66461   0.00000  1       20
siesta:      4.56380   5.35379   0.00000  1       21
siesta:      6.89193   6.69743   0.00000  1       22
siesta:      9.21994   5.35379   0.00000  1       23
siesta:     11.54807   6.69743   0.00000  1       24
siesta:     13.87608   5.35379   0.00000  1       25
siesta:     16.20421   6.69743   0.00000  1       26
siesta:     18.53411   5.35379   0.00000  1       27
siesta:     20.86224   6.69743   0.00000  1       28
siesta:     23.19025   5.35379   0.00000  1       29
siesta:     25.51838   6.69743   0.00000  1       30
siesta:      9.22019  10.73026   0.00000  1       31
siesta:     11.54820   9.38661   0.00000  1       32
siesta:     13.87633  10.73026   0.00000  1       33
siesta:     18.53247  10.73026   0.00000  1       34
siesta:     20.86237   9.38661   0.00000  1       35
siesta:     23.19050  10.73026   0.00000  1       36
siesta:      9.22031  13.41944   0.00000  1       37
siesta:     11.54845  14.76308   0.00000  1       38
siesta:     13.87645  13.41944   0.00000  1       39
siesta:     16.20459  14.76308   0.00000  1       40
siesta:     18.53448  13.41944   0.00000  1       41
siesta:     20.86262  14.76308   0.00000  1       42
siesta:     13.87670  18.79590   0.00000  1       43
siesta:     16.20471  17.45226   0.00000  1       44
siesta:     18.53284  18.79590   0.00000  1       45
siesta:     13.87683  21.48508   0.00000  1       46
siesta:     16.20496  22.82873   0.00000  1       47
siesta:     18.53486  21.48508   0.00000  1       48
siesta:     20.86299  22.82873   0.00000  1       49
siesta:     27.84664  10.73026   0.00000  1       50
siesta:     23.19063  13.41944   0.00000  1       51
siesta:     25.51876  14.76308   0.00000  1       52
siesta:     23.19088  18.79590   0.00000  1       53
siesta:     27.84677  13.41944   0.00000  1       54
siesta:     30.17490  14.76308   0.00000  1       55
siesta:     25.51888  17.45226   0.00000  1       56
siesta:     27.84702  18.79590   0.00000  1       57
siesta:     23.19100  21.48508   0.00000  1       58
siesta:     25.51913  22.82873   0.00000  1       59
siesta:     30.17503  17.45226   0.00000  1       60
siesta:     32.50316  18.79590   0.00000  1       61
siesta:     37.16131  21.48508   0.00000  1       62
siesta:     39.48945  22.82873   0.00000  1       63
siesta:      4.56367   2.66461   0.00000  2       64
siesta:     34.83116  17.45226   0.00000  2       65
siesta:     11.54782   1.32097   0.00000  2       66
siesta:     20.86199   1.32097   0.00000  2       67
siesta:      6.89205   9.38661   0.00000  2       68
siesta:     16.20434   9.38661   0.00000  2       69
siesta:     11.54857  17.45226   0.00000  2       70
siesta:     25.51851   9.38661   0.00000  2       71
siesta:     20.86274  17.45226   0.00000  2       72

siesta: System type = slab      

initatomlists: Number of atoms, orbitals, and projectors:     72   936  1152

siesta: ******************** Simulation parameters ****************************
siesta:
siesta: The following are some of the parameters of the simulation.
siesta: A complete list of the parameters used, including default values,
siesta: can be found in file out.fdf
siesta:
redata: Non-Collinear-spin run           =     F
redata: SpinPolarized (Up/Down) run      =     F
redata: Number of spin components        =     1
redata: Long output                      =     F
redata: Number of Atomic Species         =        2
redata: Charge density info will appear in .RHO file
redata: Write Mulliken Pop.              =     NO
redata: Mesh Cutoff                      =   200.0000  Ry
redata: Net charge of the system         =     0.0000 |e|
redata: Max. number of SCF Iter          =      500
redata: SCF convergence failure will abort job
redata: Performing Pulay mixing using    =    10 iterations
redata: Mix DM in first SCF step ?       =     F
redata: Write Pulay info on disk?        =     F
redata: Discard 1st Pulay DM after  kick =     F
redata: New DM Mixing Weight             =     0.0500
redata: New DM Occupancy tolerance       = 0.000000000001
redata: No kicks to SCF
redata: DM Mixing Weight for Kicks       =     0.5000
redata: DM Tolerance for SCF             =     0.000100
redata: Require Energy convergence for SCF =     F
redata: DM Energy tolerance for SCF      =     0.000100 eV
redata: Require Harris convergence for SCF =     F
redata: DM Harris energy tolerance for SCF =     0.000100 eV
redata: Using Saved Data (generic)   =     F
redata: Use continuation files for DM    =     T
redata: Neglect nonoverlap interactions  =     F
redata: Method of Calculation            =     Diagonalization
redata: Divide and Conquer               =     T
redata: Electronic Temperature           =     0.0019  Ry
redata: Fix the spin of the system       =     F
redata: Dynamics option                  =     Verlet MD run
redata: Initial MD time step             =        1
redata:   Final MD time step             =        1
redata: Length of MD time step           =     1.0000  fs
redata: Initial Temperature of MD run    =     0.0000  K
redata: Perform a MD quench              =     F
redata: ***********************************************************************
Total number of electrons:   279.000000
Total ionic charge:   279.000000

* ProcessorY, Blocksize:    2  24

k-point displ. along   1 input, could be:     0.00    0.50
k-point displ. along   2 input, could be:     0.00    0.50
 Kpoints in:          364 . Kpoints trimmed:          352

siesta: k-grid: Number of k-points =   352
siesta: k-grid: Cutoff (effective) =     5.000 Ang
siesta: k-grid: Supercell and displacements
siesta: k-grid:   26   0   0      0.000
siesta: k-grid:    0  26   0      0.000
siesta: k-grid:    0   0   1      0.000
Naive supercell factors:     2    2    2

superc: Internal auxiliary supercell:     2 x     2 x     2  =       8
superc: Number of atoms, orbitals, and projectors:    576   7488   9216

* Maximum dynamic memory allocated =     6 MB

siesta:                 ==============================
                            Begin MD step =      1
                        ==============================

superc: Internal auxiliary supercell:     2 x     2 x     2  =       8
superc: Number of atoms, orbitals, and projectors:    576   7488   9216

outcell: Unit cell vectors (Ang):
       14.785000    0.000000    0.000000
        7.393000   12.805052    0.000000
        0.000000    0.000000   10.000000

outcell: Cell vector modules (Ang)   :   14.785000   14.786000   10.000000
outcell: Cell angles (23,13,12) (deg):     90.0000     90.0000     60.0000
outcell: Cell volume (Ang**3)        :   1893.2269
New_DM. Step:     1
Initializing Density Matrix...

InitMesh: MESH =   120 x   120 x    90 =     1296000
InitMesh: Mesh cutoff (required, used) =   200.000   223.865 Ry

* Maximum dynamic memory allocated =   208 MB

stepf: Fermi-Dirac step function

siesta: Program's energy decomposition (eV):
siesta: Ebs     =     -4462.306590
siesta: Eions   =     17250.500670
siesta: Ena     =      3769.690293
siesta: Ekin    =      5903.534022
siesta: Enl     =       294.172911
siesta: DEna    =        -0.000010
siesta: DUscf   =         0.000000
siesta: DUext   =         0.000000
siesta: Exc     =     -3961.779863
siesta: eta*DQ  =         0.000000
siesta: Emadel  =         0.000000
siesta: Emeta   =         0.000000
siesta: Emolmec =         0.000000
siesta: Ekinion =         0.000000
siesta: Eharris =    -11173.250630
siesta: Etot    =    -11244.883318
siesta: FreeEng =    -11244.883318

siesta: iscf   Eharris(eV)      E_KS(eV)   FreeEng(eV)   dDmax  Ef(eV)
siesta:    1   -11173.2506   -11244.8833   -11244.8833  1.9091 -8.1122
timer: Routine,Calls,Time,% = IterSCF        1    8253.596  99.87
elaps: Routine,Calls,Wall,% = IterSCF        1    1033.659  99.90
siesta:    2   -11187.6211   -11126.6023   -11126.6345  0.5240 -3.8882
siesta:    3   -11153.2640   -11160.6901   -11160.7256  0.4597 -5.4795
siesta:    4   -11150.3245   -11156.1229   -11156.1632  0.3765 -5.5291
siesta:    5   -11146.2555   -11149.9681   -11149.9972  0.2279 -5.6882
siesta:    6   -11148.8266   -11145.3875   -11145.4199  0.1242 -5.7892
siesta:    7   -11146.9385   -11142.9967   -11143.0255  0.0613 -5.8829
siesta:    8   -11146.2709   -11142.3142   -11142.3479  0.0464 -5.9036
siesta:    9   -11145.4154   -11142.3563   -11142.3920  0.0199 -5.9529
siesta:   10   -11145.2626   -11142.5197   -11142.5532  0.0163 -5.9662
siesta:   11   -11145.1615   -11143.1756   -11143.2079  0.0088 -5.9732
siesta:   12   -11145.1593   -11143.3630   -11143.3964  0.0079 -5.9743
siesta:   13   -11145.1585   -11144.1275   -11144.1610  0.0049 -5.9730
siesta:   14   -11145.1570   -11144.5842   -11144.6177  0.0028 -5.9665
siesta:   15   -11145.1570   -11144.8635   -11144.8972  0.0024 -5.9660
siesta:   16   -11145.1567   -11145.0968   -11145.1305  0.0012 -5.9660
siesta:   17   -11145.1565   -11145.1635   -11145.1971  0.0004 -5.9649
siesta:   18   -11145.1565   -11145.1250   -11145.1586  0.0004 -5.9652
siesta:   19   -11145.1565   -11145.1612   -11145.1948  0.0002 -5.9653
siesta:   20   -11145.1565   -11145.1622   -11145.1958  0.0002 -5.9653
siesta:   21   -11145.1565   -11145.1601   -11145.1937  0.0001 -5.9654
siesta:   22   -11145.1565   -11145.1591   -11145.1926  0.0001 -5.9655

siesta: E_KS(eV) =           -11145.1591

siesta: E_KS - E_eggbox =    -11145.1591

siesta: Atomic forces (eV/Ang):
----------------------------------------
   Tot    0.194275   -0.137995    0.000000
----------------------------------------
   Max    3.745049
   Res    1.221077    sqrt( Sum f_i^2 / 3N )
----------------------------------------
   Max    3.745049    constrained

Stress-tensor-Voigt (kbar):     -118.84     -118.42       -0.25       -0.55        0.00        0.00
(Free)E + p*V (eV/cell)   -11051.6425
Target enthalpy (eV/cell)   -11145.1926

siesta: Stress tensor (static) (eV/Ang**3):
        -0.074173   -0.000346    0.000000
        -0.000346   -0.073909    0.000000
         0.000000    0.000000   -0.000157

siesta: Pressure (static):         79.16931780  kBar

siesta: Stress tensor (total) (eV/Ang**3):
        -0.074173   -0.000346    0.000000
        -0.000346   -0.073909    0.000000
         0.000000    0.000000   -0.000157

siesta: Pressure (total):         79.16931780  kBar

siesta: Temp_ion =       0.000 K

* Maximum dynamic memory allocated =   223 MB

siesta: Program's energy decomposition (eV):
siesta: Ebs     =     -3691.267715
siesta: Eions   =     17250.500670
siesta: Ena     =      3769.690293
siesta: Ekin    =      7407.217997
siesta: Enl     =      -692.020735
siesta: DEna    =      -342.213825
siesta: DUscf   =        36.427995
siesta: DUext   =         0.000000
siesta: Exc     =     -4073.760121
siesta: eta*DQ  =         0.000000
siesta: Emadel  =         0.000000
siesta: Emeta   =         0.000000
siesta: Emolmec =         0.000000
siesta: Ekinion =         0.000000
siesta: Eharris =    -11145.156484
siesta: Etot    =    -11145.159066
siesta: FreeEng =    -11145.192623

siesta: Final energy (eV):
siesta:  Band Struct. =   -3691.267715
siesta:       Kinetic =    7407.217997
siesta:       Hartree =   21692.826000
siesta:    Ext. field =       0.000000
siesta:   Exch.-corr. =   -4073.760121
siesta:  Ion-electron =  -50124.803558
siesta:       Ion-ion =   13953.360616
siesta:       Ekinion =       0.000000
siesta:         Total =  -11145.159066

siesta: Atomic forces (eV/Ang):
siesta:      1   -3.269886   -1.889644    0.000000
siesta:      2   -0.415867   -0.595476    0.000000
siesta:      3    0.282455   -2.864215    0.000000
siesta:      4    0.246672    3.745049    0.000000
siesta:      5    0.151445   -0.603797    0.000000
siesta:      6   -0.398993   -3.293900    0.000000
siesta:      7   -0.265538    1.396236    0.000000
siesta:      8   -3.218881    1.644352    0.000000
siesta:      9   -0.620028    0.091205    0.000000
siesta:     10    0.567624   -0.136140    0.000000
siesta:     11   -0.358669   -0.251070    0.000000
siesta:     12    0.157276   -0.297752    0.000000
siesta:     13    3.062839   -1.643726    0.000000
siesta:     14   -2.770105    1.122639    0.000000
siesta:     15    2.886391    1.477335    0.000000
siesta:     16   -0.071252    1.430641    0.000000
siesta:     17   -2.766818    1.461666    0.000000
siesta:     18    2.743225    1.684025    0.000000
siesta:     19    0.095880    0.368745    0.000000
siesta:     20    0.446244   -1.039465    0.000000
siesta:     21    0.126192    3.451194    0.000000
siesta:     22   -0.445826   -2.894432    0.000000
siesta:     23   -0.614601   -0.395535    0.000000
siesta:     24   -0.207946   -0.053372    0.000000
siesta:     25    1.142764   -0.517708    0.000000
siesta:     26   -0.048352   -3.220649    0.000000
siesta:     27   -0.975583   -0.430506    0.000000
siesta:     28   -0.105410   -0.025575    0.000000
siesta:     29    0.867066   -0.657367    0.000000
siesta:     30    0.269078   -3.466048    0.000000
siesta:     31    2.838401    1.725818    0.000000
siesta:     32    0.151562    1.057172    0.000000
siesta:     33   -2.767392    1.447771    0.000000
siesta:     34    2.746527    1.538481    0.000000
siesta:     35   -0.143073    1.057082    0.000000
siesta:     36   -2.682640    1.691766    0.000000
siesta:     37    0.695351   -1.187706    0.000000
siesta:     38    0.226982   -3.408830    0.000000
siesta:     39   -1.017089   -0.486520    0.000000
siesta:     40    0.039892   -0.089194    0.000000
siesta:     41    0.817070   -0.559171    0.000000
siesta:     42    0.115192   -3.137088    0.000000
siesta:     43    3.046380    1.452192    0.000000
siesta:     44   -0.095606    1.172794    0.000000
siesta:     45   -2.840929    1.907827    0.000000
siesta:     46    0.408018   -0.251329    0.000000
siesta:     47   -0.652093    0.894246    0.000000
siesta:     48   -0.277816   -0.577565    0.000000
siesta:     49    0.148439    0.610071    0.000000
siesta:     50    3.104990    1.524898    0.000000
siesta:     51   -1.225446   -0.672476    0.000000
siesta:     52    0.331246    0.309731    0.000000
siesta:     53    2.946126    1.856168    0.000000
siesta:     54    0.603738    0.023963    0.000000
siesta:     55   -0.334464    0.293350    0.000000
siesta:     56    0.039370    0.384293    0.000000
siesta:     57    0.311679   -0.414959    0.000000
siesta:     58    1.151019   -0.989093    0.000000
siesta:     59   -0.063836   -3.402769    0.000000
siesta:     60   -0.113945    0.646250    0.000000
siesta:     61   -3.538161    1.624160    0.000000
siesta:     62   -0.692809   -0.968376    0.000000
siesta:     63    0.359591    0.518064    0.000000
siesta:     64   -0.357128   -0.195182    0.000000
siesta:     65    0.024964    0.348628    0.000000
siesta:     66    0.178185    0.041290    0.000000
siesta:     67   -0.029944   -0.237026    0.000000
siesta:     68    0.177436    0.071472    0.000000
siesta:     69   -0.004802    0.017294    0.000000
siesta:     70   -0.036183    0.599405    0.000000
siesta:     71    0.059103    0.062389    0.000000
siesta:     72    0.054974   -0.033995    0.000000
siesta: ----------------------------------------
siesta:    Tot    0.194275   -0.137995    0.000000

siesta: Stress tensor (static) (eV/Ang**3):
siesta:    -0.074173   -0.000346    0.000000
siesta:    -0.000346   -0.073909    0.000000
siesta:     0.000000    0.000000   -0.000157

siesta: Cell volume =       1893.226895 Ang**3

siesta: Pressure (static):
siesta:                Solid            Molecule  Units
siesta:           0.00053817          0.00060914  Ry/Bohr**3
siesta:           0.04941307          0.05592935  eV/Ang**3
siesta:          79.16931780         89.60966883  kBar
(Free)E+ p_basis*V_orbitals  =      -11111.611424
(Free)Eharris+ p_basis*V_orbitals  =      -11111.608854

siesta: Electric dipole (a.u.)  =    0.000000    0.000000    0.000000
siesta: Electric dipole (Debye) =    0.000000    0.000000    0.000000

* Maximum dynamic memory allocated : Node    0 =   221 MB
* Maximum dynamic memory allocated : Node    1 =    80 MB
* Maximum dynamic memory allocated : Node    2 =    84 MB
* Maximum dynamic memory allocated : Node    3 =   211 MB
* Maximum dynamic memory allocated : Node    4 =   223 MB
* Maximum dynamic memory allocated : Node    5 =    81 MB
* Maximum dynamic memory allocated : Node    6 =    83 MB
* Maximum dynamic memory allocated : Node    7 =   205 MB

* Maximum memory occured during matrixMtoO                    

timer: CPU execution times:
timer:  Routine       Calls   Time/call    Tot.time        %
timer:  siesta            1  179553.764  179553.764   100.00
timer:  Setup             1       3.118       3.118     0.00
timer:  bands             1       0.009       0.009     0.00
timer:  writewave         1       0.018       0.018     0.00
timer:  KSV_init          1       0.000       0.000     0.00
timer:  IterMD            1  179542.503  179542.503    99.99
timer:  hsparse           1       0.406       0.406     0.00
timer:  overlap           1       6.400       6.400     0.00
timer:  IterSCF          22    8152.078  179345.706    99.88
timer:  kinefsm           2       3.310       6.621     0.00
timer:  nlefsm            2      20.313      40.627     0.02
timer:  DHSCF            23     109.380    2515.732     1.40
timer:  DHSCF1            1       1.050       1.050     0.00
timer:  DHSCF2            1      44.010      44.010     0.02
timer:  REORD           186       0.014       2.556     0.00
timer:  POISON           24       3.815      91.562     0.05
timer:  DHSCF3           23     105.709    2431.310     1.35
timer:  rhoofd           23      20.214     464.929     0.26
timer:  cellXC           23       3.611      83.047     0.05
timer:  vmat             23      53.894    1239.556     0.69
timer:  MolMec            2       0.000       0.000     0.00
timer:  diagon           22    8041.120  176904.639    98.52
timer:  c-eigval       7744       7.241   56076.677    31.23
timer:  c-buildHS      7744       0.219    1695.218     0.94
timer:  cdiag         15488       7.455  115465.261    64.31
timer:  cdiag1        15488       0.464    7191.702     4.01
timer:  cdiag2        15488       1.977   30620.062    17.05
timer:  cdiag3        15488       4.169   64567.967    35.96
timer:  cdiag4        15488       0.280    4342.589     2.42
timer:  c-eigvec       7744       7.970   61723.025    34.38
timer:  c-buildD       7744       7.620   59011.752    32.87
timer:  DHSCF4            1      37.275      37.275     0.02
timer:  dfscf             1      34.709      34.709     0.02
timer:  overfsm           1       0.426       0.426     0.00
timer:  optical           1       7.119       7.119     0.00
  

elaps: ELAPSED times:
elaps:  Routine       Calls   Time/call    Tot.time        %
elaps:  siesta            1   22478.619   22478.619   100.00
elaps:  Setup             1       0.389       0.389     0.00
elaps:  bands             1       0.001       0.001     0.00
elaps:  writewave         1       0.002       0.002     0.00
elaps:  KSV_init          1       0.000       0.000     0.00
elaps:  IterMD            1   22477.212   22477.212    99.99
elaps:  hsparse           1       0.049       0.049     0.00
elaps:  overlap           1       0.530       0.530     0.00
elaps:  IterSCF          22    1020.588   22452.931    99.89
elaps:  kinefsm           2       0.279       0.557     0.00
elaps:  nlefsm            2       2.641       5.282     0.02
elaps:  DHSCF            23      13.842     318.370     1.42
elaps:  DHSCF1            1       0.134       0.134     0.00
elaps:  DHSCF2            1       5.508       5.508     0.02
elaps:  REORD           186       0.002       0.376     0.00
elaps:  POISON           24       0.476      11.420     0.05
elaps:  DHSCF3           23      13.226     304.200     1.35
elaps:  rhoofd           23       4.283      98.510     0.44
elaps:  cellXC           23       0.451      10.368     0.05
elaps:  vmat             23       6.743     155.089     0.69
elaps:  MolMec            2       0.000       0.000     0.00
elaps:  diagon           22    1006.719   22147.829    98.53
elaps:  c-eigval       7744       0.906    7017.114    31.22
elaps:  c-buildHS      7744       0.029     223.139     0.99
elaps:  cdiag         15488       0.915   14168.084    63.03
elaps:  cdiag1        15488       0.057     886.290     3.94
elaps:  cdiag2        15488       0.247    3831.476    17.04
elaps:  cdiag3        15488       0.522    8091.470    36.00
elaps:  cdiag4        15488       0.035     545.085     2.42
elaps:  c-eigvec       7744       0.966    7481.119    33.28
elaps:  c-buildD       7744       0.986    7636.514    33.97
elaps:  DHSCF4            1       8.239       8.239     0.04
elaps:  dfscf             1       7.750       7.750     0.03
elaps:  overfsm           1       0.052       0.052     0.00
elaps:  optical           1       0.000       0.000     0.00
  
>> End of run:  29-NOV-2015   1:22:29
