Siesta Version:                                        siesta-3.2-pl-3
Architecture  : x86_64-unknown-linux-gnu--unknown
Compiler flags: mpiifort -g -O2 -fPIC -xSSE4.1 -fp-model source -shared-intel 
PARALLEL version

* Running on    8 nodes in parallel
>> Start of run:  27-NOV-2015   3:53:06

                           ***********************       
                           *  WELCOME TO SIESTA  *       
                           ***********************       

reinit: Reading from standard input
************************** Dump of input data file ****************************
#(1) General system descriptors
SystemName            GRP_doping    # Descriptive name of the system
SystemLabel           GRP_doping    # Short name for naming files
%include STRUCT.fdf
%include KPT.fdf
%include BASIS.fdf
#%include TS.fdf # for transiesta calculation
#(4) DFT, Grid, SCF
XC.functional         GGA           # LDA or GGA (default = LDA)
XC.authors            PBE           # CA (Ceperley-Aldr) = PZ
                                    #    (Perdew-Zunger) - LDA - Default
                                    # PW92 (Perdew-Wang-92) - LDA
                                    # PBE (Perdew-Burke-Ernzerhof) - GGA
MeshCutoff            200.000000    Ry      # Default: 50.0 Ry ~ 0.444 Bohr
                                    #         100.0 Ry ~ 0.314 Bohr
MaxSCFIterations      500           # Default: 50
DM.MixingWeight       0.05          # Default: 0.25
DM.NumberPulay        10            # Default: 0
DM.PulayOnFile        F             # SystemLabel.P1, SystemLabel.P2
DM.Tolerance          1.d-4         # Default: 1.d-4
DM.UseSaveDM          .true.        # because of the bug
SCFMustConverge       .true.
NeglNonOverlapInt     F             # Default: F
#(5) Eigenvalue problem: order-N or diagonalization
SolutionMethod        Diagon        # or Transiesta
ElectronicTemperature 300.0 K       # Default: 300.0 K
#(6) Molecular dynamics and relaxations
#MD.TypeOfRun          CG            # Type of dynamics:
#MD.VariableCell       F
#MD.NumCGsteps         0           # 0 for single-point / 100 for gopt
#MD.MaxCGDispl         0.2 Bohr      # Default: 0.2 Bohr
#MD.MaxForceTol        0.02 eV/Ang   # Default: 0.04 eV/Ang
#MD.MaxStressTol       1.0 GPa       # Default: 1.0 GPa
# Geometry Constraints
#%block GeometryConstraints
#	position from 1 to 44
#%endblock GeometryConstraints
************************** End of input data file *****************************

reinit: -----------------------------------------------------------------------
reinit: System Name: GRP_doping
reinit: -----------------------------------------------------------------------
reinit: System Label: GRP_doping                                                  
reinit: -----------------------------------------------------------------------

initatom: Reading input for the pseudopotentials and atomic orbitals ----------
 Species number:            1  Label: B Atomic number:           5
 Species number:            2  Label: C Atomic number:           6
Ground state valence configuration:   2s02  2p01
Reading pseudopotential information in formatted form from B.psf

Valence configuration for pseudopotential generation:
2s( 2.00) rc: 1.74
2p( 1.00) rc: 1.74
3d( 0.00) rc: 1.74
4f( 0.00) rc: 1.74
Ground state valence configuration:   2s02  2p02
Reading pseudopotential information in formatted form from C.psf

Valence configuration for pseudopotential generation:
2s( 2.00) rc: 1.54
2p( 2.00) rc: 1.54
3d( 0.00) rc: 1.54
4f( 0.00) rc: 1.54
For B, standard SIESTA heuristics set lmxkb to 3
 (one more than the basis l, including polarization orbitals).
Use PS.lmax or PS.KBprojectors blocks to override.
For C, standard SIESTA heuristics set lmxkb to 3
 (one more than the basis l, including polarization orbitals).
Use PS.lmax or PS.KBprojectors blocks to override.

<basis_specs>
===============================================================================
B                    Z=   5    Mass=  10.810        Charge= 0.17977+309
Lmxo=1 Lmxkb= 3    BasisType=split      Semic=F
L=0  Nsemic=0  Cnfigmx=2
          n=1  nzeta=2  polorb=0
            splnorm:   0.15000    
               vcte:    0.0000    
               rinn:    0.0000    
                rcs:    0.0000      0.0000    
            lambdas:    1.0000      1.0000    
L=1  Nsemic=0  Cnfigmx=2
          n=1  nzeta=2  polorb=1
            splnorm:   0.15000    
               vcte:    0.0000    
               rinn:    0.0000    
                rcs:    0.0000      0.0000    
            lambdas:    1.0000      1.0000    
-------------------------------------------------------------------------------
L=0  Nkbl=1  erefs: 0.17977+309
L=1  Nkbl=1  erefs: 0.17977+309
L=2  Nkbl=1  erefs: 0.17977+309
L=3  Nkbl=1  erefs: 0.17977+309
===============================================================================
</basis_specs>

atom: Called for B                     (Z =   5)

read_vps: Pseudopotential generation method:
read_vps: ATM3      Troullier-Martins                       
Total valence charge:    3.00000

read_vps: Pseudopotential includes a core correction:
read_vps: Pseudo-core for xc-correction

xc_check: Exchange-correlation functional:
xc_check: GGA Perdew, Burke & Ernzerhof 1996
V l=0 = -2*Zval/r beyond r=  1.7165
V l=1 = -2*Zval/r beyond r=  1.7165
V l=2 = -2*Zval/r beyond r=  1.7165
V l=3 = -2*Zval/r beyond r=  1.6951
All V_l potentials equal beyond r=  1.7165
This should be close to max(r_c) in ps generation
All pots = -2*Zval/r beyond r=  1.7165

VLOCAL1: 99.0% of the norm of Vloc inside     14.733 Ry
VLOCAL1: 99.9% of the norm of Vloc inside     33.577 Ry
atom: Maximum radius for 4*pi*r*r*local-pseudopot. charge    2.04484
atom: Maximum radius for r*vlocal+2*Zval:    1.75994
GHOST: No ghost state for L =  0
GHOST: No ghost state for L =  1
GHOST: No ghost state for L =  2
GHOST: No ghost state for L =  3

KBgen: Kleinman-Bylander projectors: 
   l= 0   rc=  1.897051   el= -0.693730   Ekb=  4.595746   kbcos=  0.286105
   l= 1   rc=  1.920920   el= -0.265236   Ekb= -2.350715   kbcos= -0.315747
   l= 2   rc=  2.044840   el=  0.002055   Ekb= -0.690767   kbcos= -0.013822
   l= 3   rc=  2.149707   el=  0.003188   Ekb= -0.315358   kbcos= -0.002055

KBgen: Total number of  Kleinman-Bylander projectors:   16
atom: -------------------------------------------------------------------------

atom: SANKEY-TYPE ORBITALS:
atom: Selected multiple-zeta basis: split     

SPLIT: Orbitals with angular momentum L= 0

SPLIT: Basis orbitals for state 2s

SPLIT: PAO cut-off radius determined from an
SPLIT: energy shift=  0.007350 Ry

   izeta = 1
                 lambda =    1.000000
                     rc =    5.422032
                 energy =   -0.686029
                kinetic =    0.576707
    potential(screened) =   -1.262736
       potential(ionic) =   -3.271094

   izeta = 2
                 rmatch =    4.222573
              splitnorm =    0.150000
                 energy =   -0.602132
                kinetic =    0.858975
    potential(screened) =   -1.461107
       potential(ionic) =   -3.582536

SPLIT: Orbitals with angular momentum L= 1

SPLIT: Basis orbitals for state 2p

SPLIT: PAO cut-off radius determined from an
SPLIT: energy shift=  0.007350 Ry

   izeta = 1
                 lambda =    1.000000
                     rc =    6.790259
                 energy =   -0.258578
                kinetic =    1.481412
    potential(screened) =   -1.739989
       potential(ionic) =   -3.657461

   izeta = 2
                 rmatch =    4.608740
              splitnorm =    0.150000
                 energy =   -0.173757
                kinetic =    2.186690
    potential(screened) =   -2.360447
       potential(ionic) =   -4.464260

POLgen: Perturbative polarization orbital with L=  2

POLgen: Polarization orbital for state 2p

   izeta = 1
                     rc =    6.790259
                 energy =    0.684082
                kinetic =    1.471481
    potential(screened) =   -0.787399
       potential(ionic) =   -2.406985
atom: Total number of Sankey-type orbitals: 13

atm_pop: Valence configuration (for local Pseudopot. screening):
 2s( 2.00)                                                            
 2p( 1.00)                                                            
Vna: chval, zval:    3.00000   3.00000

Vna:  Cut-off radius for the neutral-atom potential:   6.790259
comcore: Pseudo-core radius Rcore=  2.122997

atom: _________________________________________________________________________

<basis_specs>
===============================================================================
C                    Z=   6    Mass=  12.010        Charge= 0.17977+309
Lmxo=1 Lmxkb= 3    BasisType=split      Semic=F
L=0  Nsemic=0  Cnfigmx=2
          n=1  nzeta=2  polorb=0
            splnorm:   0.15000    
               vcte:    0.0000    
               rinn:    0.0000    
                rcs:    0.0000      0.0000    
            lambdas:    1.0000      1.0000    
L=1  Nsemic=0  Cnfigmx=2
          n=1  nzeta=2  polorb=1
            splnorm:   0.15000    
               vcte:    0.0000    
               rinn:    0.0000    
                rcs:    0.0000      0.0000    
            lambdas:    1.0000      1.0000    
-------------------------------------------------------------------------------
L=0  Nkbl=1  erefs: 0.17977+309
L=1  Nkbl=1  erefs: 0.17977+309
L=2  Nkbl=1  erefs: 0.17977+309
L=3  Nkbl=1  erefs: 0.17977+309
===============================================================================
</basis_specs>

atom: Called for C                     (Z =   6)

read_vps: Pseudopotential generation method:
read_vps: ATM3      Troullier-Martins                       
Total valence charge:    4.00000

read_vps: Pseudopotential includes a core correction:
read_vps: Pseudo-core for xc-correction

xc_check: Exchange-correlation functional:
xc_check: GGA Perdew, Burke & Ernzerhof 1996
V l=0 = -2*Zval/r beyond r=  1.5227
V l=1 = -2*Zval/r beyond r=  1.5227
V l=2 = -2*Zval/r beyond r=  1.5227
V l=3 = -2*Zval/r beyond r=  1.5038
All V_l potentials equal beyond r=  1.5227
This should be close to max(r_c) in ps generation
All pots = -2*Zval/r beyond r=  1.5227

VLOCAL1: 99.0% of the norm of Vloc inside     18.722 Ry
VLOCAL1: 99.9% of the norm of Vloc inside     42.668 Ry
atom: Maximum radius for 4*pi*r*r*local-pseudopot. charge    1.83678
atom: Maximum radius for r*vlocal+2*Zval:    1.58088
GHOST: No ghost state for L =  0
GHOST: No ghost state for L =  1
GHOST: No ghost state for L =  2
GHOST: No ghost state for L =  3

KBgen: Kleinman-Bylander projectors: 
   l= 0   rc=  1.704034   el= -1.009801   Ekb=  5.335044   kbcos=  0.316824
   l= 1   rc=  1.704034   el= -0.388707   Ekb= -3.785862   kbcos= -0.366464
   l= 2   rc=  1.791422   el=  0.001971   Ekb= -0.970471   kbcos= -0.009212
   l= 3   rc=  1.859892   el=  0.003065   Ekb= -0.399525   kbcos= -0.001223

KBgen: Total number of  Kleinman-Bylander projectors:   16
atom: -------------------------------------------------------------------------

atom: SANKEY-TYPE ORBITALS:
atom: Selected multiple-zeta basis: split     

SPLIT: Orbitals with angular momentum L= 0

SPLIT: Basis orbitals for state 2s

SPLIT: PAO cut-off radius determined from an
SPLIT: energy shift=  0.007350 Ry

   izeta = 1
                 lambda =    1.000000
                     rc =    4.632753
                 energy =   -1.002270
                kinetic =    0.855760
    potential(screened) =   -1.858031
       potential(ionic) =   -5.417575

   izeta = 2
                 rmatch =    3.431921
              splitnorm =    0.150000
                 energy =   -0.867111
                kinetic =    1.300804
    potential(screened) =   -2.167915
       potential(ionic) =   -5.962684

SPLIT: Orbitals with angular momentum L= 1

SPLIT: Basis orbitals for state 2p

SPLIT: PAO cut-off radius determined from an
SPLIT: energy shift=  0.007350 Ry

   izeta = 1
                 lambda =    1.000000
                     rc =    5.658549
                 energy =   -0.381140
                kinetic =    2.399701
    potential(screened) =   -2.780841
       potential(ionic) =   -6.206085

   izeta = 2
                 rmatch =    3.653288
              splitnorm =    0.150000
                 energy =   -0.249149
                kinetic =    3.542762
    potential(screened) =   -3.791911
       potential(ionic) =   -7.581078

POLgen: Perturbative polarization orbital with L=  2

POLgen: Polarization orbital for state 2p

   izeta = 1
                     rc =    5.658549
                 energy =    1.109913
                kinetic =    2.304789
    potential(screened) =   -1.194876
       potential(ionic) =   -4.013592
atom: Total number of Sankey-type orbitals: 13

atm_pop: Valence configuration (for local Pseudopot. screening):
 2s( 2.00)                                                            
 2p( 2.00)                                                            
Vna: chval, zval:    4.00000   4.00000

Vna:  Cut-off radius for the neutral-atom potential:   5.658549
comcore: Pseudo-core radius Rcore=  1.791422

atom: _________________________________________________________________________

prinput: Basis input ----------------------------------------------------------

PAO.BasisType split     

%block ChemicalSpeciesLabel
    1    5 B                       # Species index, atomic number, species label
    2    6 C                       # Species index, atomic number, species label
%endblock ChemicalSpeciesLabel

%block PAO.Basis                 # Define Basis set
B                     2                    # Species label, number of l-shells
 n=2   0   2                         # n, l, Nzeta 
   5.422      4.223   
   1.000      1.000   
 n=2   1   2 P   1                   # n, l, Nzeta, Polarization, NzetaPol
   6.790      4.609   
   1.000      1.000   
C                     2                    # Species label, number of l-shells
 n=2   0   2                         # n, l, Nzeta 
   4.633      3.432   
   1.000      1.000   
 n=2   1   2 P   1                   # n, l, Nzeta, Polarization, NzetaPol
   5.659      3.653   
   1.000      1.000   
%endblock PAO.Basis

prinput: ----------------------------------------------------------------------

coor:   Atomic-coordinates input format  =     Cartesian coordinates
coor:                                          (in Angstroms)

siesta: Atomic coordinates (Bohr) and species
siesta:      2.23554   1.32097   0.00000  1        1
siesta:     34.83141  22.82873   0.00000  1        2
siesta:     11.54782   1.32097   0.00000  1        3
siesta:     20.86199   1.32097   0.00000  1        4
siesta:      6.89205   9.38661   0.00000  1        5
siesta:     16.20434   9.38661   0.00000  1        6
siesta:     11.54857  17.45226   0.00000  1        7
siesta:     25.51851   9.38661   0.00000  1        8
siesta:     20.86274  17.45226   0.00000  1        9
siesta:      4.56367   2.66461   0.00000  2       10
siesta:     32.50328  21.48508   0.00000  2       11
siesta:     34.83116  17.45226   0.00000  2       12
siesta:     37.15930  18.79590   0.00000  2       13
siesta:     32.50291  13.41944   0.00000  2       14
siesta:     34.83104  14.76308   0.00000  2       15
siesta:     30.17465   9.38661   0.00000  2       16
siesta:     32.50278  10.73026   0.00000  2       17
siesta:     27.84639   5.35379   0.00000  2       18
siesta:     30.17453   6.69743   0.00000  2       19
siesta:     27.84714  21.48508   0.00000  2       20
siesta:     30.17527  22.82873   0.00000  2       21
siesta:      6.89168   1.32097   0.00000  2       22
siesta:      9.21981   2.66461   0.00000  2       23
siesta:     13.87595   2.66461   0.00000  2       24
siesta:     16.20396   1.32097   0.00000  2       25
siesta:     18.53210   2.66461   0.00000  2       26
siesta:     23.19013   2.66461   0.00000  2       27
siesta:     25.51813   1.32097   0.00000  2       28
siesta:     27.84627   2.66461   0.00000  2       29
siesta:      4.56380   5.35379   0.00000  2       30
siesta:      6.89193   6.69743   0.00000  2       31
siesta:      9.21994   5.35379   0.00000  2       32
siesta:     11.54807   6.69743   0.00000  2       33
siesta:     13.87608   5.35379   0.00000  2       34
siesta:     16.20421   6.69743   0.00000  2       35
siesta:     18.53411   5.35379   0.00000  2       36
siesta:     20.86224   6.69743   0.00000  2       37
siesta:     23.19025   5.35379   0.00000  2       38
siesta:     25.51838   6.69743   0.00000  2       39
siesta:      9.22019  10.73026   0.00000  2       40
siesta:     11.54820   9.38661   0.00000  2       41
siesta:     13.87633  10.73026   0.00000  2       42
siesta:     18.53247  10.73026   0.00000  2       43
siesta:     20.86237   9.38661   0.00000  2       44
siesta:     23.19050  10.73026   0.00000  2       45
siesta:      9.22031  13.41944   0.00000  2       46
siesta:     11.54845  14.76308   0.00000  2       47
siesta:     13.87645  13.41944   0.00000  2       48
siesta:     16.20459  14.76308   0.00000  2       49
siesta:     18.53448  13.41944   0.00000  2       50
siesta:     20.86262  14.76308   0.00000  2       51
siesta:     13.87670  18.79590   0.00000  2       52
siesta:     16.20471  17.45226   0.00000  2       53
siesta:     18.53284  18.79590   0.00000  2       54
siesta:     13.87683  21.48508   0.00000  2       55
siesta:     16.20496  22.82873   0.00000  2       56
siesta:     18.53486  21.48508   0.00000  2       57
siesta:     20.86299  22.82873   0.00000  2       58
siesta:     27.84664  10.73026   0.00000  2       59
siesta:     23.19063  13.41944   0.00000  2       60
siesta:     25.51876  14.76308   0.00000  2       61
siesta:     23.19088  18.79590   0.00000  2       62
siesta:     27.84677  13.41944   0.00000  2       63
siesta:     30.17490  14.76308   0.00000  2       64
siesta:     25.51888  17.45226   0.00000  2       65
siesta:     27.84702  18.79590   0.00000  2       66
siesta:     23.19100  21.48508   0.00000  2       67
siesta:     25.51913  22.82873   0.00000  2       68
siesta:     30.17503  17.45226   0.00000  2       69
siesta:     32.50316  18.79590   0.00000  2       70
siesta:     37.16131  21.48508   0.00000  2       71
siesta:     39.48945  22.82873   0.00000  2       72

siesta: System type = slab      

initatomlists: Number of atoms, orbitals, and projectors:     72   936  1152

siesta: ******************** Simulation parameters ****************************
siesta:
siesta: The following are some of the parameters of the simulation.
siesta: A complete list of the parameters used, including default values,
siesta: can be found in file out.fdf
siesta:
redata: Non-Collinear-spin run           =     F
redata: SpinPolarized (Up/Down) run      =     F
redata: Number of spin components        =     1
redata: Long output                      =     F
redata: Number of Atomic Species         =        2
redata: Charge density info will appear in .RHO file
redata: Write Mulliken Pop.              =     NO
redata: Mesh Cutoff                      =   200.0000  Ry
redata: Net charge of the system         =     0.0000 |e|
redata: Max. number of SCF Iter          =      500
redata: SCF convergence failure will abort job
redata: Performing Pulay mixing using    =    10 iterations
redata: Mix DM in first SCF step ?       =     F
redata: Write Pulay info on disk?        =     F
redata: Discard 1st Pulay DM after  kick =     F
redata: New DM Mixing Weight             =     0.0500
redata: New DM Occupancy tolerance       = 0.000000000001
redata: No kicks to SCF
redata: DM Mixing Weight for Kicks       =     0.5000
redata: DM Tolerance for SCF             =     0.000100
redata: Require Energy convergence for SCF =     F
redata: DM Energy tolerance for SCF      =     0.000100 eV
redata: Require Harris convergence for SCF =     F
redata: DM Harris energy tolerance for SCF =     0.000100 eV
redata: Using Saved Data (generic)   =     F
redata: Use continuation files for DM    =     T
redata: Neglect nonoverlap interactions  =     F
redata: Method of Calculation            =     Diagonalization
redata: Divide and Conquer               =     T
redata: Electronic Temperature           =     0.0019  Ry
redata: Fix the spin of the system       =     F
redata: Dynamics option                  =     Verlet MD run
redata: Initial MD time step             =        1
redata:   Final MD time step             =        1
redata: Length of MD time step           =     1.0000  fs
redata: Initial Temperature of MD run    =     0.0000  K
redata: Perform a MD quench              =     F
redata: ***********************************************************************
Total number of electrons:   279.000000
Total ionic charge:   279.000000

* ProcessorY, Blocksize:    2  24

k-point displ. along   1 input, could be:     0.00    0.50
k-point displ. along   2 input, could be:     0.00    0.50
 Kpoints in:          364 . Kpoints trimmed:          352

siesta: k-grid: Number of k-points =   352
siesta: k-grid: Cutoff (effective) =     5.000 Ang
siesta: k-grid: Supercell and displacements
siesta: k-grid:   26   0   0      0.000
siesta: k-grid:    0  26   0      0.000
siesta: k-grid:    0   0   1      0.000
Naive supercell factors:     2    2    2

superc: Internal auxiliary supercell:     2 x     2 x     2  =       8
superc: Number of atoms, orbitals, and projectors:    576   7488   9216

* Maximum dynamic memory allocated =     6 MB

siesta:                 ==============================
                            Begin MD step =      1
                        ==============================

superc: Internal auxiliary supercell:     2 x     2 x     2  =       8
superc: Number of atoms, orbitals, and projectors:    576   7488   9216

outcell: Unit cell vectors (Ang):
       14.785000    0.000000    0.000000
        7.393000   12.805052    0.000000
        0.000000    0.000000   10.000000

outcell: Cell vector modules (Ang)   :   14.785000   14.786000   10.000000
outcell: Cell angles (23,13,12) (deg):     90.0000     90.0000     60.0000
outcell: Cell volume (Ang**3)        :   1893.2269
New_DM. Step:     1
Initializing Density Matrix...

InitMesh: MESH =   120 x   120 x    90 =     1296000
InitMesh: Mesh cutoff (required, used) =   200.000   223.865 Ry

* Maximum dynamic memory allocated =   207 MB

stepf: Fermi-Dirac step function

siesta: Program's energy decomposition (eV):
siesta: Ebs     =     -4460.404821
siesta: Eions   =     17250.500670
siesta: Ena     =      3769.794810
siesta: Ekin    =      5903.534022
siesta: Enl     =       294.309121
siesta: DEna    =        -0.000010
siesta: DUscf   =         0.000000
siesta: DUext   =         0.000000
siesta: Exc     =     -3961.820129
siesta: eta*DQ  =         0.000000
siesta: Emadel  =         0.000000
siesta: Emeta   =         0.000000
siesta: Emolmec =         0.000000
siesta: Ekinion =         0.000000
siesta: Eharris =    -11172.415687
siesta: Etot    =    -11244.682857
siesta: FreeEng =    -11244.682857

siesta: iscf   Eharris(eV)      E_KS(eV)   FreeEng(eV)   dDmax  Ef(eV)
siesta:    1   -11172.4157   -11244.6829   -11244.6829  1.8846 -8.1067
timer: Routine,Calls,Time,% = IterSCF        1    6742.331  99.82
elaps: Routine,Calls,Wall,% = IterSCF        1     843.856  99.81
siesta:    2   -11191.6990   -11125.1422   -11125.1774  0.5842 -3.8178
siesta:    3   -11152.7441   -11161.8939   -11161.9326  0.4769 -5.3536
siesta:    4   -11150.0329   -11161.1240   -11161.1409  0.4565 -5.4214
siesta:    5   -11146.3325   -11154.9641   -11154.9901  0.3183 -5.7196
siesta:    6   -11146.0707   -11148.0943   -11148.1261  0.2029 -5.6904
siesta:    7   -11146.8607   -11142.5959   -11142.6337  0.1824 -5.8788
siesta:    8   -11145.4542   -11141.8131   -11141.8464  0.1562 -5.8901
siesta:    9   -11144.6989   -11141.6866   -11141.7160  0.1336 -5.9192
siesta:   10   -11144.2492   -11141.6635   -11141.6961  0.1006 -5.9635
siesta:   11   -11144.1168   -11142.0298   -11142.0643  0.0825 -5.9785
siesta:   12   -11144.0882   -11142.1988   -11142.2302  0.0710 -5.9784
siesta:   13   -11144.0706   -11142.8767   -11142.9084  0.0442 -5.9590
siesta:   14   -11144.0665   -11143.4345   -11143.4683  0.0275 -5.9540
siesta:   15   -11144.0556   -11143.8838   -11143.9182  0.0109 -5.9461
siesta:   16   -11144.0509   -11144.0114   -11144.0451  0.0074 -5.9457
siesta:   17   -11144.0493   -11144.0445   -11144.0776  0.0049 -5.9465
siesta:   18   -11144.0481   -11144.0249   -11144.0582  0.0024 -5.9444
siesta:   19   -11144.0476   -11143.9864   -11144.0195  0.0029 -5.9455
siesta:   20   -11144.0472   -11144.0321   -11144.0652  0.0014 -5.9466
siesta:   21   -11144.0471   -11144.0479   -11144.0811  0.0008 -5.9463
siesta:   22   -11144.0471   -11144.0549   -11144.0881  0.0006 -5.9462
siesta:   23   -11144.0470   -11144.0570   -11144.0902  0.0004 -5.9467
siesta:   24   -11144.0470   -11144.0599   -11144.0931  0.0002 -5.9469
siesta:   25   -11144.0470   -11144.0583   -11144.0914  0.0002 -5.9470
siesta:   26   -11144.0470   -11144.0579   -11144.0910  0.0001 -5.9469

siesta: E_KS(eV) =           -11144.0560

siesta: E_KS - E_eggbox =    -11144.0560

siesta: Atomic forces (eV/Ang):
----------------------------------------
   Tot    0.193825   -0.150428    0.000000
----------------------------------------
   Max    4.155066
   Res    1.231577    sqrt( Sum f_i^2 / 3N )
----------------------------------------
   Max    4.155066    constrained

Stress-tensor-Voigt (kbar):     -117.97     -119.69       -0.25       -0.62        0.00        0.00
(Free)E + p*V (eV/cell)   -11050.3766
Target enthalpy (eV/cell)   -11144.0892

siesta: Stress tensor (static) (eV/Ang**3):
        -0.073633   -0.000386    0.000000
        -0.000386   -0.074706    0.000000
         0.000000    0.000000   -0.000158

siesta: Pressure (static):         79.30679060  kBar

siesta: Stress tensor (total) (eV/Ang**3):
        -0.073633   -0.000386    0.000000
        -0.000386   -0.074706    0.000000
         0.000000    0.000000   -0.000158

siesta: Pressure (total):         79.30679060  kBar

siesta: Temp_ion =       0.000 K

* Maximum dynamic memory allocated =   223 MB

siesta: Program's energy decomposition (eV):
siesta: Ebs     =     -3690.967181
siesta: Eions   =     17250.500670
siesta: Ena     =      3769.794810
siesta: Ekin    =      7406.569932
siesta: Enl     =      -691.379346
siesta: DEna    =      -341.564600
siesta: DUscf   =        36.577542
siesta: DUext   =         0.000000
siesta: Exc     =     -4073.553677
siesta: eta*DQ  =         0.000000
siesta: Emadel  =         0.000000
siesta: Emeta   =         0.000000
siesta: Emolmec =         0.000000
siesta: Ekinion =         0.000000
siesta: Eharris =    -11144.047032
siesta: Etot    =    -11144.056011
siesta: FreeEng =    -11144.089174

siesta: Final energy (eV):
siesta:  Band Struct. =   -3690.967181
siesta:       Kinetic =    7406.569932
siesta:       Hartree =   21696.088267
siesta:    Ext. field =       0.000000
siesta:   Exch.-corr. =   -4073.553677
siesta:  Ion-electron =  -50130.664760
siesta:       Ion-ion =   13957.504227
siesta:       Ekinion =       0.000000
siesta:         Total =  -11144.056011

siesta: Atomic forces (eV/Ang):
siesta:      1   -0.012387    0.108234    0.000000
siesta:      2    0.115183   -3.909822    0.000000
siesta:      3    0.126818    0.009973    0.000000
siesta:      4   -0.063697    4.155066    0.000000
siesta:      5   -0.005643    0.070812    0.000000
siesta:      6   -0.033244   -0.029375    0.000000
siesta:      7   -0.131691   -0.173711    0.000000
siesta:      8    0.098474    0.066986    0.000000
siesta:      9    0.052853    0.024103    0.000000
siesta:     10    2.713376    1.576354    0.000000
siesta:     11   -3.359205   -2.115628    0.000000
siesta:     12   -0.115911   -0.059574    0.000000
siesta:     13   -2.208419    1.921156    0.000000
siesta:     14   -0.404981   -0.169771    0.000000
siesta:     15   -0.384606    0.531137    0.000000
siesta:     16   -0.026850    1.103439    0.000000
siesta:     17   -2.898748    1.591411    0.000000
siesta:     18   -0.791463   -0.464568    0.000000
siesta:     19   -0.076871   -0.115765    0.000000
siesta:     20   -0.560818   -0.196300    0.000000
siesta:     21    0.350134   -1.423911    0.000000
siesta:     22    0.007945    1.075108    0.000000
siesta:     23   -2.819987    1.592926    0.000000
siesta:     24    2.937288    1.355654    0.000000
siesta:     25   -0.075852    1.965204    0.000000
siesta:     26   -2.661283    1.888463    0.000000
siesta:     27    2.573796    2.007060    0.000000
siesta:     28    0.102779    1.530610    0.000000
siesta:     29   -2.755610    1.479810    0.000000
siesta:     30    0.878184   -0.569357    0.000000
siesta:     31   -0.053595   -3.130270    0.000000
siesta:     32   -0.946333   -0.621274    0.000000
siesta:     33    0.119324    0.009797    0.000000
siesta:     34    0.974608   -0.370975    0.000000
siesta:     35    0.025359   -3.073308    0.000000
siesta:     36   -1.230359   -0.447641    0.000000
siesta:     37   -0.056783    0.206872    0.000000
siesta:     38    1.178578   -0.581279    0.000000
siesta:     39   -0.013233   -3.010950    0.000000
siesta:     40    2.664133    1.735983    0.000000
siesta:     41    0.188223    1.086002    0.000000
siesta:     42   -2.748880    1.525036    0.000000
siesta:     43    2.745474    1.600011    0.000000
siesta:     44   -0.155341    0.879271    0.000000
siesta:     45   -2.600826    1.736201    0.000000
siesta:     46    1.275655   -0.736978    0.000000
siesta:     47   -0.113011   -3.151928    0.000000
siesta:     48   -0.834307   -0.621048    0.000000
siesta:     49    0.008542   -0.103401    0.000000
siesta:     50    0.768385   -0.642546    0.000000
siesta:     51    0.137584   -3.121975    0.000000
siesta:     52    2.761172    1.616009    0.000000
siesta:     53   -0.073203    1.110465    0.000000
siesta:     54   -2.597939    1.579773    0.000000
siesta:     55    1.151207   -0.485738    0.000000
siesta:     56    0.041702   -3.251228    0.000000
siesta:     57   -0.885718   -0.512373    0.000000
siesta:     58   -0.066538    0.027462    0.000000
siesta:     59    2.824514    1.509447    0.000000
siesta:     60   -1.132538   -0.716413    0.000000
siesta:     61    0.382887    0.200517    0.000000
siesta:     62    2.739654    1.694832    0.000000
siesta:     63    0.374107   -0.101380    0.000000
siesta:     64   -0.086975    0.415741    0.000000
siesta:     65    0.116434    0.347590    0.000000
siesta:     66    0.423060   -0.242058    0.000000
siesta:     67    0.909145   -0.556826    0.000000
siesta:     68   -0.047362   -3.418542    0.000000
siesta:     69    0.019342   -0.163333    0.000000
siesta:     70   -0.945771    0.070126    0.000000
siesta:     71    2.597126   -2.327970    0.000000
siesta:     72   -0.213245   -0.937852    0.000000
siesta: ----------------------------------------
siesta:    Tot    0.193825   -0.150428    0.000000

siesta: Stress tensor (static) (eV/Ang**3):
siesta:    -0.073633   -0.000386    0.000000
siesta:    -0.000386   -0.074706    0.000000
siesta:     0.000000    0.000000   -0.000158

siesta: Cell volume =       1893.226895 Ang**3

siesta: Pressure (static):
siesta:                Solid            Molecule  Units
siesta:           0.00053911          0.00101441  Ry/Bohr**3
siesta:           0.04949887          0.09314007  eV/Ang**3
siesta:          79.30679060        149.22844886  kBar
(Free)E+ p_basis*V_orbitals  =      -11110.507975
(Free)Eharris+ p_basis*V_orbitals  =      -11110.497134

siesta: Electric dipole (a.u.)  =    0.000000    0.000000    0.000000
siesta: Electric dipole (Debye) =    0.000000    0.000000    0.000000

* Maximum dynamic memory allocated : Node    0 =   223 MB
* Maximum dynamic memory allocated : Node    1 =    82 MB
* Maximum dynamic memory allocated : Node    2 =    85 MB
* Maximum dynamic memory allocated : Node    3 =   211 MB
* Maximum dynamic memory allocated : Node    4 =   223 MB
* Maximum dynamic memory allocated : Node    5 =    80 MB
* Maximum dynamic memory allocated : Node    6 =    82 MB
* Maximum dynamic memory allocated : Node    7 =   205 MB

* Maximum memory occured during matrixMtoO                    

timer: CPU execution times:
timer:  Routine       Calls   Time/call    Tot.time        %
timer:  siesta            1  173968.477  173968.477   100.00
timer:  Setup             1       3.801       3.801     0.00
timer:  bands             1       0.018       0.018     0.00
timer:  writewave         1       0.037       0.037     0.00
timer:  KSV_init          1       0.004       0.004     0.00
timer:  IterMD            1  173956.716  173956.716    99.99
timer:  hsparse           1       0.393       0.393     0.00
timer:  overlap           1       6.385       6.385     0.00
timer:  IterSCF          26    6683.176  173762.571    99.88
timer:  kinefsm           2       3.314       6.629     0.00
timer:  nlefsm            2      20.529      41.058     0.02
timer:  DHSCF            27     104.567    2823.299     1.62
timer:  DHSCF1            1       0.987       0.987     0.00
timer:  DHSCF2            1      41.623      41.623     0.02
timer:  REORD           218       0.010       2.224     0.00
timer:  POISON           28       2.242      62.787     0.04
timer:  DHSCF3           27     101.562    2742.164     1.58
timer:  rhoofd           27      19.900     537.294     0.31
timer:  cellXC           27       3.521      95.068     0.05
timer:  vmat             27      52.006    1404.170     0.81
timer:  MolMec            2       0.000       0.000     0.00
timer:  diagon           26    6576.846  170997.999    98.29
timer:  c-eigval       9152       6.688   61208.810    35.18
timer:  c-buildHS      9152       0.123    1121.805     0.64
timer:  cdiag         18304       6.900  126306.053    72.60
timer:  cdiag1        18304       0.430    7865.194     4.52
timer:  cdiag2        18304       1.907   34905.350    20.06
timer:  cdiag3        18304       3.952   72344.773    41.58
timer:  cdiag4        18304       0.230    4203.242     2.42
timer:  c-eigvec       9152       7.310   66897.625    38.45
timer:  c-buildD       9152       4.678   42816.367    24.61
timer:  DHSCF4            1      37.045      37.045     0.02
timer:  dfscf             1      34.504      34.504     0.02
timer:  overfsm           1       0.430       0.430     0.00
timer:  optical           1       6.996       6.996     0.00
  

elaps: ELAPSED times:
elaps:  Routine       Calls   Time/call    Tot.time        %
elaps:  siesta            1   21771.388   21771.388   100.00
elaps:  Setup             1       0.491       0.491     0.00
elaps:  bands             1       0.002       0.002     0.00
elaps:  writewave         1       0.005       0.005     0.00
elaps:  KSV_init          1       0.001       0.001     0.00
elaps:  IterMD            1   21769.894   21769.894    99.99
elaps:  hsparse           1       0.049       0.049     0.00
elaps:  overlap           1       0.974       0.974     0.00
elaps:  IterSCF          26     836.375   21745.741    99.88
elaps:  kinefsm           2       0.502       1.004     0.00
elaps:  nlefsm            2       2.604       5.208     0.02
elaps:  DHSCF            27      13.214     356.787     1.64
elaps:  DHSCF1            1       0.127       0.127     0.00
elaps:  DHSCF2            1       5.201       5.201     0.02
elaps:  REORD           218       0.001       0.298     0.00
elaps:  POISON           28       0.280       7.848     0.04
elaps:  DHSCF3           27      12.706     343.054     1.58
elaps:  rhoofd           27       4.286     115.733     0.53
elaps:  cellXC           27       0.439      11.864     0.05
elaps:  vmat             27       6.506     175.662     0.81
elaps:  MolMec            2       0.000       0.000     0.00
elaps:  diagon           26     823.083   21400.157    98.29
elaps:  c-eigval       9152       0.837    7658.148    35.18
elaps:  c-buildHS      9152       0.017     152.765     0.70
elaps:  cdiag         18304       0.850   15553.532    71.44
elaps:  cdiag1        18304       0.053     977.570     4.49
elaps:  cdiag2        18304       0.239    4367.127    20.06
elaps:  cdiag3        18304       0.495    9063.608    41.63
elaps:  cdiag4        18304       0.029     529.158     2.43
elaps:  c-eigvec       9152       0.890    8148.025    37.43
elaps:  c-buildD       9152       0.610    5578.424    25.62
elaps:  DHSCF4            1       8.207       8.207     0.04
elaps:  dfscf             1       7.717       7.717     0.04
elaps:  overfsm           1       0.056       0.056     0.00
elaps:  optical           1       0.001       0.001     0.00
  
>> End of run:  27-NOV-2015   9:55:57
