Siesta Version:                                        siesta-3.2-pl-3
Architecture  : x86_64-unknown-linux-gnu--unknown
Compiler flags: mpiifort -g -O2 -fPIC -xSSE4.1 -fp-model source -shared-intel 
PARALLEL version

* Running on    8 nodes in parallel
>> Start of run:   1-DEC-2015   3:05:22

                           ***********************       
                           *  WELCOME TO SIESTA  *       
                           ***********************       

reinit: Reading from standard input
************************** Dump of input data file ****************************
#(1) General system descriptors
SystemName            GRP_doping    # Descriptive name of the system
SystemLabel           GRP_doping    # Short name for naming files
%include STRUCT.fdf
%include KPT.fdf
%include BASIS.fdf
#%include TS.fdf # for transiesta calculation
#(4) DFT, Grid, SCF
XC.functional         GGA           # LDA or GGA (default = LDA)
XC.authors            PBE           # CA (Ceperley-Aldr) = PZ
                                    #    (Perdew-Zunger) - LDA - Default
                                    # PW92 (Perdew-Wang-92) - LDA
                                    # PBE (Perdew-Burke-Ernzerhof) - GGA
MeshCutoff            200.000000    Ry      # Default: 50.0 Ry ~ 0.444 Bohr
                                    #         100.0 Ry ~ 0.314 Bohr
MaxSCFIterations      500           # Default: 50
DM.MixingWeight       0.05          # Default: 0.25
DM.NumberPulay        10            # Default: 0
DM.PulayOnFile        F             # SystemLabel.P1, SystemLabel.P2
DM.Tolerance          1.d-4         # Default: 1.d-4
DM.UseSaveDM          .true.        # because of the bug
SCFMustConverge       .true.
NeglNonOverlapInt     F             # Default: F
#(5) Eigenvalue problem: order-N or diagonalization
SolutionMethod        Diagon        # or Transiesta
ElectronicTemperature 300.0 K       # Default: 300.0 K
#(6) Molecular dynamics and relaxations
#MD.TypeOfRun          CG            # Type of dynamics:
#MD.VariableCell       F
#MD.NumCGsteps         0           # 0 for single-point / 100 for gopt
#MD.MaxCGDispl         0.2 Bohr      # Default: 0.2 Bohr
#MD.MaxForceTol        0.02 eV/Ang   # Default: 0.04 eV/Ang
#MD.MaxStressTol       1.0 GPa       # Default: 1.0 GPa
# Geometry Constraints
#%block GeometryConstraints
#	position from 1 to 44
#%endblock GeometryConstraints
************************** End of input data file *****************************

reinit: -----------------------------------------------------------------------
reinit: System Name: GRP_doping
reinit: -----------------------------------------------------------------------
reinit: System Label: GRP_doping                                                  
reinit: -----------------------------------------------------------------------

initatom: Reading input for the pseudopotentials and atomic orbitals ----------
 Species number:            1  Label: C Atomic number:           6
 Species number:            2  Label: N Atomic number:           7
Ground state valence configuration:   2s02  2p02
Reading pseudopotential information in formatted form from C.psf

Valence configuration for pseudopotential generation:
2s( 2.00) rc: 1.54
2p( 2.00) rc: 1.54
3d( 0.00) rc: 1.54
4f( 0.00) rc: 1.54
Ground state valence configuration:   2s02  2p03
Reading pseudopotential information in formatted form from N.psf

Valence configuration for pseudopotential generation:
2s( 2.00) rc: 1.48
2p( 3.00) rc: 1.48
3d( 0.00) rc: 1.48
4f( 0.00) rc: 1.48
For C, standard SIESTA heuristics set lmxkb to 3
 (one more than the basis l, including polarization orbitals).
Use PS.lmax or PS.KBprojectors blocks to override.
For N, standard SIESTA heuristics set lmxkb to 3
 (one more than the basis l, including polarization orbitals).
Use PS.lmax or PS.KBprojectors blocks to override.

<basis_specs>
===============================================================================
C                    Z=   6    Mass=  12.010        Charge= 0.17977+309
Lmxo=1 Lmxkb= 3    BasisType=split      Semic=F
L=0  Nsemic=0  Cnfigmx=2
          n=1  nzeta=2  polorb=0
            splnorm:   0.15000    
               vcte:    0.0000    
               rinn:    0.0000    
                rcs:    0.0000      0.0000    
            lambdas:    1.0000      1.0000    
L=1  Nsemic=0  Cnfigmx=2
          n=1  nzeta=2  polorb=1
            splnorm:   0.15000    
               vcte:    0.0000    
               rinn:    0.0000    
                rcs:    0.0000      0.0000    
            lambdas:    1.0000      1.0000    
-------------------------------------------------------------------------------
L=0  Nkbl=1  erefs: 0.17977+309
L=1  Nkbl=1  erefs: 0.17977+309
L=2  Nkbl=1  erefs: 0.17977+309
L=3  Nkbl=1  erefs: 0.17977+309
===============================================================================
</basis_specs>

atom: Called for C                     (Z =   6)

read_vps: Pseudopotential generation method:
read_vps: ATM3      Troullier-Martins                       
Total valence charge:    4.00000

read_vps: Pseudopotential includes a core correction:
read_vps: Pseudo-core for xc-correction

xc_check: Exchange-correlation functional:
xc_check: GGA Perdew, Burke & Ernzerhof 1996
V l=0 = -2*Zval/r beyond r=  1.5227
V l=1 = -2*Zval/r beyond r=  1.5227
V l=2 = -2*Zval/r beyond r=  1.5227
V l=3 = -2*Zval/r beyond r=  1.5038
All V_l potentials equal beyond r=  1.5227
This should be close to max(r_c) in ps generation
All pots = -2*Zval/r beyond r=  1.5227

VLOCAL1: 99.0% of the norm of Vloc inside     18.722 Ry
VLOCAL1: 99.9% of the norm of Vloc inside     42.668 Ry
atom: Maximum radius for 4*pi*r*r*local-pseudopot. charge    1.83678
atom: Maximum radius for r*vlocal+2*Zval:    1.58088
GHOST: No ghost state for L =  0
GHOST: No ghost state for L =  1
GHOST: No ghost state for L =  2
GHOST: No ghost state for L =  3

KBgen: Kleinman-Bylander projectors: 
   l= 0   rc=  1.704034   el= -1.009801   Ekb=  5.335044   kbcos=  0.316824
   l= 1   rc=  1.704034   el= -0.388707   Ekb= -3.785862   kbcos= -0.366464
   l= 2   rc=  1.791422   el=  0.001971   Ekb= -0.970471   kbcos= -0.009212
   l= 3   rc=  1.859892   el=  0.003065   Ekb= -0.399525   kbcos= -0.001223

KBgen: Total number of  Kleinman-Bylander projectors:   16
atom: -------------------------------------------------------------------------

atom: SANKEY-TYPE ORBITALS:
atom: Selected multiple-zeta basis: split     

SPLIT: Orbitals with angular momentum L= 0

SPLIT: Basis orbitals for state 2s

SPLIT: PAO cut-off radius determined from an
SPLIT: energy shift=  0.007350 Ry

   izeta = 1
                 lambda =    1.000000
                     rc =    4.632753
                 energy =   -1.002270
                kinetic =    0.855760
    potential(screened) =   -1.858031
       potential(ionic) =   -5.417575

   izeta = 2
                 rmatch =    3.431921
              splitnorm =    0.150000
                 energy =   -0.867111
                kinetic =    1.300804
    potential(screened) =   -2.167915
       potential(ionic) =   -5.962684

SPLIT: Orbitals with angular momentum L= 1

SPLIT: Basis orbitals for state 2p

SPLIT: PAO cut-off radius determined from an
SPLIT: energy shift=  0.007350 Ry

   izeta = 1
                 lambda =    1.000000
                     rc =    5.658549
                 energy =   -0.381140
                kinetic =    2.399701
    potential(screened) =   -2.780841
       potential(ionic) =   -6.206085

   izeta = 2
                 rmatch =    3.653288
              splitnorm =    0.150000
                 energy =   -0.249149
                kinetic =    3.542762
    potential(screened) =   -3.791911
       potential(ionic) =   -7.581078

POLgen: Perturbative polarization orbital with L=  2

POLgen: Polarization orbital for state 2p

   izeta = 1
                     rc =    5.658549
                 energy =    1.109913
                kinetic =    2.304789
    potential(screened) =   -1.194876
       potential(ionic) =   -4.013592
atom: Total number of Sankey-type orbitals: 13

atm_pop: Valence configuration (for local Pseudopot. screening):
 2s( 2.00)                                                            
 2p( 2.00)                                                            
Vna: chval, zval:    4.00000   4.00000

Vna:  Cut-off radius for the neutral-atom potential:   5.658549
comcore: Pseudo-core radius Rcore=  1.791422

atom: _________________________________________________________________________

<basis_specs>
===============================================================================
N                    Z=   7    Mass=  14.010        Charge= 0.17977+309
Lmxo=1 Lmxkb= 3    BasisType=split      Semic=F
L=0  Nsemic=0  Cnfigmx=2
          n=1  nzeta=2  polorb=0
            splnorm:   0.15000    
               vcte:    0.0000    
               rinn:    0.0000    
                rcs:    0.0000      0.0000    
            lambdas:    1.0000      1.0000    
L=1  Nsemic=0  Cnfigmx=2
          n=1  nzeta=2  polorb=1
            splnorm:   0.15000    
               vcte:    0.0000    
               rinn:    0.0000    
                rcs:    0.0000      0.0000    
            lambdas:    1.0000      1.0000    
-------------------------------------------------------------------------------
L=0  Nkbl=1  erefs: 0.17977+309
L=1  Nkbl=1  erefs: 0.17977+309
L=2  Nkbl=1  erefs: 0.17977+309
L=3  Nkbl=1  erefs: 0.17977+309
===============================================================================
</basis_specs>

atom: Called for N                     (Z =   7)

read_vps: Pseudopotential generation method:
read_vps: ATM3      Troullier-Martins                       
Total valence charge:    5.00000

read_vps: Pseudopotential includes a core correction:
read_vps: Pseudo-core for xc-correction

xc_check: Exchange-correlation functional:
xc_check: GGA Perdew, Burke & Ernzerhof 1996
V l=0 = -2*Zval/r beyond r=  1.4606
V l=1 = -2*Zval/r beyond r=  1.4606
V l=2 = -2*Zval/r beyond r=  1.4606
V l=3 = -2*Zval/r beyond r=  1.4606
All V_l potentials equal beyond r=  1.4606
This should be close to max(r_c) in ps generation
All pots = -2*Zval/r beyond r=  1.4606

VLOCAL1: 99.0% of the norm of Vloc inside     20.347 Ry
VLOCAL1: 99.9% of the norm of Vloc inside     46.372 Ry
atom: Maximum radius for 4*pi*r*r*local-pseudopot. charge    1.76189
atom: Maximum radius for r*vlocal+2*Zval:    1.53550
GHOST: No ghost state for L =  0
GHOST: No ghost state for L =  1
GHOST: No ghost state for L =  2
GHOST: No ghost state for L =  3

KBgen: Kleinman-Bylander projectors: 
   l= 0   rc=  1.634559   el= -1.363963   Ekb=  5.296955   kbcos=  0.335621
   l= 1   rc=  1.614250   el= -0.521451   Ekb= -5.259161   kbcos= -0.433408
   l= 2   rc=  1.718383   el=  0.001991   Ekb= -1.271464   kbcos= -0.007566
   l= 3   rc=  1.761893   el=  0.003093   Ekb= -0.494769   kbcos= -0.001015

KBgen: Total number of  Kleinman-Bylander projectors:   16
atom: -------------------------------------------------------------------------

atom: SANKEY-TYPE ORBITALS:
atom: Selected multiple-zeta basis: split     

SPLIT: Orbitals with angular momentum L= 0

SPLIT: Basis orbitals for state 2s

SPLIT: PAO cut-off radius determined from an
SPLIT: energy shift=  0.007350 Ry

   izeta = 1
                 lambda =    1.000000
                     rc =    4.071465
                 energy =   -1.356470
                kinetic =    1.176977
    potential(screened) =   -2.533447
       potential(ionic) =   -8.057990

   izeta = 2
                 rmatch =    2.905100
              splitnorm =    0.150000
                 energy =   -1.158343
                kinetic =    1.813009
    potential(screened) =   -2.971352
       potential(ionic) =   -8.901931

SPLIT: Orbitals with angular momentum L= 1

SPLIT: Basis orbitals for state 2p

SPLIT: PAO cut-off radius determined from an
SPLIT: energy shift=  0.007350 Ry

   izeta = 1
                 lambda =    1.000000
                     rc =    4.972977
                 energy =   -0.513884
                kinetic =    3.441732
    potential(screened) =   -3.955616
       potential(ionic) =   -9.287901

   izeta = 2
                 rmatch =    3.054066
              splitnorm =    0.150000
                 energy =   -0.318226
                kinetic =    5.125348
    potential(screened) =   -5.443573
       potential(ionic) =  -11.380999

POLgen: Perturbative polarization orbital with L=  2

POLgen: Polarization orbital for state 2p

   izeta = 1
                     rc =    4.972977
                 energy =    1.607437
                kinetic =    3.268125
    potential(screened) =   -1.660688
       potential(ionic) =   -5.973652
atom: Total number of Sankey-type orbitals: 13

atm_pop: Valence configuration (for local Pseudopot. screening):
 2s( 2.00)                                                            
 2p( 3.00)                                                            
Vna: chval, zval:    5.00000   5.00000

Vna:  Cut-off radius for the neutral-atom potential:   4.972977
comcore: Pseudo-core radius Rcore=  1.554824

atom: _________________________________________________________________________

prinput: Basis input ----------------------------------------------------------

PAO.BasisType split     

%block ChemicalSpeciesLabel
    1    6 C                       # Species index, atomic number, species label
    2    7 N                       # Species index, atomic number, species label
%endblock ChemicalSpeciesLabel

%block PAO.Basis                 # Define Basis set
C                     2                    # Species label, number of l-shells
 n=2   0   2                         # n, l, Nzeta 
   4.633      3.432   
   1.000      1.000   
 n=2   1   2 P   1                   # n, l, Nzeta, Polarization, NzetaPol
   5.659      3.653   
   1.000      1.000   
N                     2                    # Species label, number of l-shells
 n=2   0   2                         # n, l, Nzeta 
   4.071      2.905   
   1.000      1.000   
 n=2   1   2 P   1                   # n, l, Nzeta, Polarization, NzetaPol
   4.973      3.054   
   1.000      1.000   
%endblock PAO.Basis

prinput: ----------------------------------------------------------------------

coor:   Atomic-coordinates input format  =     Cartesian coordinates
coor:                                          (in Angstroms)

siesta: Atomic coordinates (Bohr) and species
siesta:      2.23554   1.32097   0.00000  1        1
siesta:      4.56367   2.66461   0.00000  1        2
siesta:     32.50328  21.48508   0.00000  1        3
siesta:     34.83141  22.82873   0.00000  1        4
siesta:     34.83116  17.45226   0.00000  1        5
siesta:     37.15930  18.79590   0.00000  1        6
siesta:     32.50291  13.41944   0.00000  1        7
siesta:     34.83104  14.76308   0.00000  1        8
siesta:     30.17465   9.38661   0.00000  1        9
siesta:     32.50278  10.73026   0.00000  1       10
siesta:     27.84639   5.35379   0.00000  1       11
siesta:     30.17453   6.69743   0.00000  1       12
siesta:     27.84714  21.48508   0.00000  1       13
siesta:     30.17527  22.82873   0.00000  1       14
siesta:      6.89168   1.32097   0.00000  1       15
siesta:      9.21981   2.66461   0.00000  1       16
siesta:     13.87595   2.66461   0.00000  1       17
siesta:     16.20396   1.32097   0.00000  1       18
siesta:     18.53210   2.66461   0.00000  1       19
siesta:     23.19013   2.66461   0.00000  1       20
siesta:     25.51813   1.32097   0.00000  1       21
siesta:     27.84627   2.66461   0.00000  1       22
siesta:      6.89193   6.69743   0.00000  1       23
siesta:      9.21994   5.35379   0.00000  1       24
siesta:     11.54807   6.69743   0.00000  1       25
siesta:     13.87608   5.35379   0.00000  1       26
siesta:     16.20421   6.69743   0.00000  1       27
siesta:     18.53411   5.35379   0.00000  1       28
siesta:     20.86224   6.69743   0.00000  1       29
siesta:     23.19025   5.35379   0.00000  1       30
siesta:     25.51838   6.69743   0.00000  1       31
siesta:      9.22019  10.73026   0.00000  1       32
siesta:     11.54820   9.38661   0.00000  1       33
siesta:     13.87633  10.73026   0.00000  1       34
siesta:     18.53247  10.73026   0.00000  1       35
siesta:     20.86237   9.38661   0.00000  1       36
siesta:     23.19050  10.73026   0.00000  1       37
siesta:      9.22031  13.41944   0.00000  1       38
siesta:     11.54845  14.76308   0.00000  1       39
siesta:     13.87645  13.41944   0.00000  1       40
siesta:     16.20459  14.76308   0.00000  1       41
siesta:     18.53448  13.41944   0.00000  1       42
siesta:     20.86262  14.76308   0.00000  1       43
siesta:     13.87670  18.79590   0.00000  1       44
siesta:     16.20471  17.45226   0.00000  1       45
siesta:     18.53284  18.79590   0.00000  1       46
siesta:     13.87683  21.48508   0.00000  1       47
siesta:     16.20496  22.82873   0.00000  1       48
siesta:     18.53486  21.48508   0.00000  1       49
siesta:     20.86299  22.82873   0.00000  1       50
siesta:     27.84664  10.73026   0.00000  1       51
siesta:     23.19063  13.41944   0.00000  1       52
siesta:     25.51876  14.76308   0.00000  1       53
siesta:     23.19088  18.79590   0.00000  1       54
siesta:     27.84677  13.41944   0.00000  1       55
siesta:     30.17490  14.76308   0.00000  1       56
siesta:     25.51888  17.45226   0.00000  1       57
siesta:     27.84702  18.79590   0.00000  1       58
siesta:     23.19100  21.48508   0.00000  1       59
siesta:     25.51913  22.82873   0.00000  1       60
siesta:     30.17503  17.45226   0.00000  1       61
siesta:     32.50316  18.79590   0.00000  1       62
siesta:     37.16131  21.48508   0.00000  1       63
siesta:     11.54782   1.32097   0.00000  2       64
siesta:     20.86199   1.32097   0.00000  2       65
siesta:      4.56380   5.35379   0.00000  2       66
siesta:      6.89205   9.38661   0.00000  2       67
siesta:     16.20434   9.38661   0.00000  2       68
siesta:     11.54857  17.45226   0.00000  2       69
siesta:     25.51851   9.38661   0.00000  2       70
siesta:     20.86274  17.45226   0.00000  2       71
siesta:     39.48945  22.82873   0.00000  2       72

siesta: System type = slab      

initatomlists: Number of atoms, orbitals, and projectors:     72   936  1152

siesta: ******************** Simulation parameters ****************************
siesta:
siesta: The following are some of the parameters of the simulation.
siesta: A complete list of the parameters used, including default values,
siesta: can be found in file out.fdf
siesta:
redata: Non-Collinear-spin run           =     F
redata: SpinPolarized (Up/Down) run      =     F
redata: Number of spin components        =     1
redata: Long output                      =     F
redata: Number of Atomic Species         =        2
redata: Charge density info will appear in .RHO file
redata: Write Mulliken Pop.              =     NO
redata: Mesh Cutoff                      =   200.0000  Ry
redata: Net charge of the system         =     0.0000 |e|
redata: Max. number of SCF Iter          =      500
redata: SCF convergence failure will abort job
redata: Performing Pulay mixing using    =    10 iterations
redata: Mix DM in first SCF step ?       =     F
redata: Write Pulay info on disk?        =     F
redata: Discard 1st Pulay DM after  kick =     F
redata: New DM Mixing Weight             =     0.0500
redata: New DM Occupancy tolerance       = 0.000000000001
redata: No kicks to SCF
redata: DM Mixing Weight for Kicks       =     0.5000
redata: DM Tolerance for SCF             =     0.000100
redata: Require Energy convergence for SCF =     F
redata: DM Energy tolerance for SCF      =     0.000100 eV
redata: Require Harris convergence for SCF =     F
redata: DM Harris energy tolerance for SCF =     0.000100 eV
redata: Using Saved Data (generic)   =     F
redata: Use continuation files for DM    =     T
redata: Neglect nonoverlap interactions  =     F
redata: Method of Calculation            =     Diagonalization
redata: Divide and Conquer               =     T
redata: Electronic Temperature           =     0.0019  Ry
redata: Fix the spin of the system       =     F
redata: Dynamics option                  =     Verlet MD run
redata: Initial MD time step             =        1
redata:   Final MD time step             =        1
redata: Length of MD time step           =     1.0000  fs
redata: Initial Temperature of MD run    =     0.0000  K
redata: Perform a MD quench              =     F
redata: ***********************************************************************
Total number of electrons:   297.000000
Total ionic charge:   297.000000

* ProcessorY, Blocksize:    2  24

k-point displ. along   1 input, could be:     0.00    0.50
k-point displ. along   2 input, could be:     0.00    0.50
 Kpoints in:          364 . Kpoints trimmed:          352

siesta: k-grid: Number of k-points =   352
siesta: k-grid: Cutoff (effective) =     5.000 Ang
siesta: k-grid: Supercell and displacements
siesta: k-grid:   26   0   0      0.000
siesta: k-grid:    0  26   0      0.000
siesta: k-grid:    0   0   1      0.000
Naive supercell factors:     2    2    2

superc: Internal auxiliary supercell:     2 x     2 x     2  =       8
superc: Number of atoms, orbitals, and projectors:    576   7488   9216

* Maximum dynamic memory allocated =     6 MB

siesta:                 ==============================
                            Begin MD step =      1
                        ==============================

superc: Internal auxiliary supercell:     2 x     2 x     2  =       8
superc: Number of atoms, orbitals, and projectors:    576   7488   9216

outcell: Unit cell vectors (Ang):
       14.785000    0.000000    0.000000
        7.393000   12.805052    0.000000
        0.000000    0.000000   10.000000

outcell: Cell vector modules (Ang)   :   14.785000   14.786000   10.000000
outcell: Cell angles (23,13,12) (deg):     90.0000     90.0000     60.0000
outcell: Cell volume (Ang**3)        :   1893.2269
New_DM. Step:     1
Initializing Density Matrix...

InitMesh: MESH =   120 x   120 x    90 =     1296000
InitMesh: Mesh cutoff (required, used) =   200.000   223.865 Ry

* Maximum dynamic memory allocated =   187 MB

stepf: Fermi-Dirac step function

siesta: Program's energy decomposition (eV):
siesta: Ebs     =     -4703.586674
siesta: Eions   =     19849.732669
siesta: Ena     =      4064.199982
siesta: Ekin    =      7133.479856
siesta: Enl     =       -33.853021
siesta: DEna    =        -0.000012
siesta: DUscf   =         0.000000
siesta: DUext   =         0.000000
siesta: Exc     =     -4161.732574
siesta: eta*DQ  =         0.000000
siesta: Emadel  =         0.000000
siesta: Emeta   =         0.000000
siesta: Emolmec =         0.000000
siesta: Ekinion =         0.000000
siesta: Eharris =    -12754.963178
siesta: Etot    =    -12847.638437
siesta: FreeEng =    -12847.638437

siesta: iscf   Eharris(eV)      E_KS(eV)   FreeEng(eV)   dDmax  Ef(eV)
siesta:    1   -12754.9632   -12847.6384   -12847.6384  1.9450 -4.8373
timer: Routine,Calls,Time,% = IterSCF        1    6655.567  99.84
elaps: Routine,Calls,Wall,% = IterSCF        1     833.249  99.88
siesta:    2   -12772.3659   -12726.9759   -12727.0116  0.5596 -3.1683
siesta:    3   -12753.1901   -12745.4396   -12745.4713  0.4699 -3.3480
siesta:    4   -12743.4457   -12743.3605   -12743.3905  0.1959 -3.1784
siesta:    5   -12741.5839   -12741.6636   -12741.7004  0.1585 -3.1259
siesta:    6   -12740.5689   -12739.4644   -12739.5022  0.0832 -3.1573
siesta:    7   -12740.6129   -12738.7757   -12738.8151  0.0637 -3.2354
siesta:    8   -12740.4920   -12738.3809   -12738.4191  0.0524 -3.3336
siesta:    9   -12740.1734   -12738.3435   -12738.3783  0.0227 -3.4307
siesta:   10   -12740.0851   -12738.5979   -12738.6342  0.0166 -3.4354
siesta:   11   -12740.0670   -12738.7394   -12738.7785  0.0132 -3.4365
siesta:   12   -12740.0540   -12739.0906   -12739.1299  0.0065 -3.4390
siesta:   13   -12740.0530   -12739.2311   -12739.2700  0.0040 -3.4355
siesta:   14   -12740.0530   -12739.5074   -12739.5464  0.0026 -3.4352
siesta:   15   -12740.0526   -12739.8715   -12739.9103  0.0014 -3.4339
siesta:   16   -12740.0522   -12739.9326   -12739.9716  0.0008 -3.4323
siesta:   17   -12740.0522   -12740.0071   -12740.0461  0.0007 -3.4315
siesta:   18   -12740.0522   -12740.0370   -12740.0760  0.0005 -3.4316
siesta:   19   -12740.0521   -12740.0473   -12740.0862  0.0005 -3.4315
siesta:   20   -12740.0521   -12740.0504   -12740.0894  0.0004 -3.4317
siesta:   21   -12740.0521   -12740.0514   -12740.0904  0.0003 -3.4317
siesta:   22   -12740.0521   -12740.0515   -12740.0905  0.0001 -3.4315
siesta:   23   -12740.0521   -12740.0524   -12740.0914  0.0001 -3.4315

siesta: E_KS(eV) =           -12740.0534

siesta: E_KS - E_eggbox =    -12740.0534

siesta: Atomic forces (eV/Ang):
----------------------------------------
   Tot    0.208833   -0.300094    0.000000
----------------------------------------
   Max    1.077970
   Res    0.320010    sqrt( Sum f_i^2 / 3N )
----------------------------------------
   Max    1.077970    constrained

Stress-tensor-Voigt (kbar):        0.16        0.98        0.14        0.36        0.00        0.00
(Free)E + p*V (eV/cell)   -12740.5947
Target enthalpy (eV/cell)   -12740.0923

siesta: Stress tensor (static) (eV/Ang**3):
         0.000097    0.000227    0.000000
         0.000227    0.000609    0.000000
         0.000000    0.000000    0.000090

siesta: Pressure (static):         -0.42515986  kBar

siesta: Stress tensor (total) (eV/Ang**3):
         0.000097    0.000227    0.000000
         0.000227    0.000609    0.000000
         0.000000    0.000000    0.000090

siesta: Pressure (total):         -0.42515986  kBar

siesta: Temp_ion =       0.000 K

* Maximum dynamic memory allocated =   203 MB

siesta: Program's energy decomposition (eV):
siesta: Ebs     =     -4185.221764
siesta: Eions   =     19849.732669
siesta: Ena     =      4064.199982
siesta: Ekin    =      8579.947147
siesta: Enl     =     -1058.962440
siesta: DEna    =      -247.430560
siesta: DUscf   =        22.386845
siesta: DUext   =         0.000000
siesta: Exc     =     -4250.461672
siesta: eta*DQ  =         0.000000
siesta: Emadel  =         0.000000
siesta: Emeta   =         0.000000
siesta: Emolmec =         0.000000
siesta: Ekinion =         0.000000
siesta: Eharris =    -12740.052112
siesta: Etot    =    -12740.053367
siesta: FreeEng =    -12740.092328

siesta: Final energy (eV):
siesta:  Band Struct. =   -4185.221764
siesta:       Kinetic =    8579.947147
siesta:       Hartree =   24801.683991
siesta:    Ext. field =       0.000000
siesta:   Exch.-corr. =   -4250.461672
siesta:  Ion-electron =  -57579.597692
siesta:       Ion-ion =   15708.374860
siesta:       Ekinion =       0.000000
siesta:         Total =  -12740.053367

siesta: Atomic forces (eV/Ang):
siesta:      1    0.741942    0.613209    0.000000
siesta:      2   -0.390104    0.377047    0.000000
siesta:      3   -0.223003    0.364223    0.000000
siesta:      4    0.698758    0.644326    0.000000
siesta:      5    0.250429   -0.450008    0.000000
siesta:      6    0.821932    0.437972    0.000000
siesta:      7    0.652523   -0.427385    0.000000
siesta:      8   -0.468456    0.493007    0.000000
siesta:      9    0.265672   -0.044980    0.000000
siesta:     10    0.232809    0.108708    0.000000
siesta:     11    0.617247    0.608450    0.000000
siesta:     12    0.239583   -1.077970    0.000000
siesta:     13    0.196001    0.595983    0.000000
siesta:     14    0.119171   -0.552625    0.000000
siesta:     15    0.559182   -0.069807    0.000000
siesta:     16    0.656337   -0.542168    0.000000
siesta:     17   -0.151975   -0.471832    0.000000
siesta:     18    0.019038    0.178159    0.000000
siesta:     19    0.221988   -0.382687    0.000000
siesta:     20    0.060443   -0.890623    0.000000
siesta:     21   -0.310595   -0.475758    0.000000
siesta:     22   -1.020039   -0.537487    0.000000
siesta:     23   -0.510134   -0.053700    0.000000
siesta:     24   -0.203691    0.174443    0.000000
siesta:     25   -0.074866    0.010152    0.000000
siesta:     26   -0.266733    0.309989    0.000000
siesta:     27    0.049938    0.074927    0.000000
siesta:     28    0.038104    0.210444    0.000000
siesta:     29    0.195164   -0.031105    0.000000
siesta:     30   -0.047701    0.321746    0.000000
siesta:     31   -0.053642    0.570049    0.000000
siesta:     32   -0.284284   -0.020761    0.000000
siesta:     33    0.182245   -0.234188    0.000000
siesta:     34    0.146646   -0.120803    0.000000
siesta:     35    0.097777   -0.025734    0.000000
siesta:     36   -0.201233   -0.313169    0.000000
siesta:     37    0.378244    0.083401    0.000000
siesta:     38    0.195949   -0.163406    0.000000
siesta:     39   -0.189536    0.304504    0.000000
siesta:     40    0.187619    0.002569    0.000000
siesta:     41    0.102764    0.185609    0.000000
siesta:     42   -0.383760    0.061789    0.000000
siesta:     43    0.217085    0.358472    0.000000
siesta:     44   -0.660034    0.859137    0.000000
siesta:     45    0.302814   -0.339004    0.000000
siesta:     46    0.450652   -0.226060    0.000000
siesta:     47   -0.781838   -0.477100    0.000000
siesta:     48   -0.377705   -0.193216    0.000000
siesta:     49    0.532492   -0.426909    0.000000
siesta:     50   -0.706144    0.382691    0.000000
siesta:     51   -0.433984   -0.743296    0.000000
siesta:     52   -0.178783   -0.135640    0.000000
siesta:     53    0.594050    0.205154    0.000000
siesta:     54   -0.564820   -0.079084    0.000000
siesta:     55   -0.616866    0.078440    0.000000
siesta:     56   -0.074782   -0.140891    0.000000
siesta:     57   -0.329794   -0.444193    0.000000
siesta:     58   -0.262135    0.102524    0.000000
siesta:     59    0.137239   -0.136151    0.000000
siesta:     60   -0.044519    0.507421    0.000000
siesta:     61    0.023301   -0.082798    0.000000
siesta:     62    0.215013    0.195946    0.000000
siesta:     63    0.257490    0.077587    0.000000
siesta:     64   -0.187149    0.168548    0.000000
siesta:     65   -0.375459    0.005944    0.000000
siesta:     66    0.167010    0.984169    0.000000
siesta:     67   -0.243959   -0.527707    0.000000
siesta:     68   -0.204520   -0.040085    0.000000
siesta:     69   -0.176561   -0.484715    0.000000
siesta:     70    0.045343    0.053800    0.000000
siesta:     71   -0.043995   -0.030317    0.000000
siesta:     72    0.381637    0.382731    0.000000
siesta: ----------------------------------------
siesta:    Tot    0.208833   -0.300094    0.000000

siesta: Stress tensor (static) (eV/Ang**3):
siesta:     0.000097    0.000227    0.000000
siesta:     0.000227    0.000609    0.000000
siesta:     0.000000    0.000000    0.000090

siesta: Cell volume =       1893.226895 Ang**3

siesta: Pressure (static):
siesta:                Solid            Molecule  Units
siesta:          -0.00000289         -0.00006257  Ry/Bohr**3
siesta:          -0.00026536         -0.00574503  eV/Ang**3
siesta:          -0.42515986         -9.20465767  kBar
(Free)E+ p_basis*V_orbitals  =      -12710.641381
(Free)Eharris+ p_basis*V_orbitals  =      -12710.641101

siesta: Electric dipole (a.u.)  =    0.000000    0.000000    0.000000
siesta: Electric dipole (Debye) =    0.000000    0.000000    0.000000

* Maximum dynamic memory allocated : Node    0 =   203 MB
* Maximum dynamic memory allocated : Node    1 =    74 MB
* Maximum dynamic memory allocated : Node    2 =    76 MB
* Maximum dynamic memory allocated : Node    3 =   192 MB
* Maximum dynamic memory allocated : Node    4 =   203 MB
* Maximum dynamic memory allocated : Node    5 =    73 MB
* Maximum dynamic memory allocated : Node    6 =    75 MB
* Maximum dynamic memory allocated : Node    7 =   187 MB

* Maximum memory occured during matrixMtoO                    

timer: CPU execution times:
timer:  Routine       Calls   Time/call    Tot.time        %
timer:  siesta            1  151450.872  151450.872   100.00
timer:  Setup             1       3.054       3.054     0.00
timer:  bands             1       0.012       0.012     0.00
timer:  writewave         1       0.019       0.019     0.00
timer:  KSV_init          1       0.001       0.001     0.00
timer:  IterMD            1  151439.605  151439.605    99.99
timer:  hsparse           1       0.255       0.255     0.00
timer:  overlap           1       6.359       6.359     0.00
timer:  IterSCF          23    6576.995  151270.887    99.88
timer:  kinefsm           2       3.262       6.523     0.00
timer:  nlefsm            2      18.824      37.648     0.02
timer:  DHSCF            24      90.177    2164.252     1.43
timer:  DHSCF1            1       0.760       0.760     0.00
timer:  DHSCF2            1      33.253      33.253     0.02
timer:  REORD           194       0.010       1.948     0.00
timer:  POISON           25       2.252      56.298     0.04
timer:  DHSCF3           24      87.407    2097.760     1.39
timer:  rhoofd           24      16.205     388.909     0.26
timer:  cellXC           24       3.487      83.690     0.06
timer:  vmat             24      45.503    1092.078     0.72
timer:  MolMec            2       0.000       0.000     0.00
timer:  diagon           23    6485.511  149166.760    98.49
timer:  c-eigval       8096       6.681   54088.896    35.71
timer:  c-buildHS      8096       0.118     953.332     0.63
timer:  cdiag         16192       6.868  111204.257    73.43
timer:  cdiag1        16192       0.427    6913.692     4.56
timer:  cdiag2        16192       1.905   30848.633    20.37
timer:  cdiag3        16192       3.953   64013.453    42.27
timer:  cdiag4        16192       0.203    3281.777     2.17
timer:  c-eigvec       8096       7.245   58652.089    38.73
timer:  c-buildD       8096       4.491   36356.580    24.01
timer:  DHSCF4            1      31.201      31.201     0.02
timer:  dfscf             1      29.352      29.352     0.02
timer:  overfsm           1       0.381       0.381     0.00
timer:  optical           1       7.184       7.184     0.00
  

elaps: ELAPSED times:
elaps:  Routine       Calls   Time/call    Tot.time        %
elaps:  siesta            1   18952.621   18952.621   100.00
elaps:  Setup             1       0.382       0.382     0.00
elaps:  bands             1       0.001       0.001     0.00
elaps:  writewave         1       0.002       0.002     0.00
elaps:  KSV_init          1       0.000       0.000     0.00
elaps:  IterMD            1   18951.211   18951.211    99.99
elaps:  hsparse           1       0.032       0.032     0.00
elaps:  overlap           1       0.523       0.523     0.00
elaps:  IterSCF          23     823.062   18930.437    99.88
elaps:  kinefsm           2       0.275       0.550     0.00
elaps:  nlefsm            2       2.432       4.865     0.03
elaps:  DHSCF            24      11.425     274.195     1.45
elaps:  DHSCF1            1       0.098       0.098     0.00
elaps:  DHSCF2            1       4.158       4.158     0.02
elaps:  REORD           194       0.001       0.254     0.00
elaps:  POISON           25       0.282       7.051     0.04
elaps:  DHSCF3           24      10.935     262.440     1.38
elaps:  rhoofd           24       3.500      83.993     0.44
elaps:  cellXC           24       0.436      10.455     0.06
elaps:  vmat             24       5.693     136.622     0.72
elaps:  MolMec            2       0.000       0.000     0.00
elaps:  diagon           23     811.627   18667.425    98.50
elaps:  c-eigval       8096       0.836    6767.258    35.71
elaps:  c-buildHS      8096       0.016     131.160     0.69
elaps:  cdiag         16192       0.846   13699.567    72.28
elaps:  cdiag1        16192       0.053     858.362     4.53
elaps:  cdiag2        16192       0.238    3860.013    20.37
elaps:  cdiag3        16192       0.495    8019.631    42.31
elaps:  cdiag4        16192       0.026     428.427     2.26
elaps:  c-eigvec       8096       0.884    7154.908    37.75
elaps:  c-buildD       8096       0.585    4735.231    24.98
elaps:  DHSCF4            1       7.324       7.324     0.04
elaps:  dfscf             1       6.950       6.950     0.04
elaps:  overfsm           1       0.049       0.049     0.00
elaps:  optical           1       0.000       0.000     0.00
  
>> End of run:   1-DEC-2015   8:21:15
