Siesta Version:                                        siesta-3.2-pl-3
Architecture  : x86_64-unknown-linux-gnu--unknown
Compiler flags: mpiifort -g -O2 -fPIC -xSSE4.1 -fp-model source -shared-intel 
PARALLEL version

* Running on    8 nodes in parallel
>> Start of run:   4-DEC-2015   0:06:05

                           ***********************       
                           *  WELCOME TO SIESTA  *       
                           ***********************       

reinit: Reading from standard input
************************** Dump of input data file ****************************
#(1) General system descriptors
SystemName            GRP_doping    # Descriptive name of the system
SystemLabel           GRP_doping    # Short name for naming files
%include STRUCT.fdf
%include KPT.fdf
%include BASIS.fdf
#%include TS.fdf # for transiesta calculation
#(4) DFT, Grid, SCF
XC.functional         GGA           # LDA or GGA (default = LDA)
XC.authors            PBE           # CA (Ceperley-Aldr) = PZ
                                    #    (Perdew-Zunger) - LDA - Default
                                    # PW92 (Perdew-Wang-92) - LDA
                                    # PBE (Perdew-Burke-Ernzerhof) - GGA
MeshCutoff            200.000000    Ry      # Default: 50.0 Ry ~ 0.444 Bohr
                                    #         100.0 Ry ~ 0.314 Bohr
MaxSCFIterations      500           # Default: 50
DM.MixingWeight       0.05          # Default: 0.25
DM.NumberPulay        10            # Default: 0
DM.PulayOnFile        F             # SystemLabel.P1, SystemLabel.P2
DM.Tolerance          1.d-4         # Default: 1.d-4
DM.UseSaveDM          .true.        # because of the bug
SCFMustConverge       .true.
NeglNonOverlapInt     F             # Default: F
#(5) Eigenvalue problem: order-N or diagonalization
SolutionMethod        Diagon        # or Transiesta
ElectronicTemperature 300.0 K       # Default: 300.0 K
#(6) Molecular dynamics and relaxations
#MD.TypeOfRun          CG            # Type of dynamics:
#MD.VariableCell       F
#MD.NumCGsteps         0           # 0 for single-point / 100 for gopt
#MD.MaxCGDispl         0.2 Bohr      # Default: 0.2 Bohr
#MD.MaxForceTol        0.02 eV/Ang   # Default: 0.04 eV/Ang
#MD.MaxStressTol       1.0 GPa       # Default: 1.0 GPa
# Geometry Constraints
#%block GeometryConstraints
#	position from 1 to 44
#%endblock GeometryConstraints
************************** End of input data file *****************************

reinit: -----------------------------------------------------------------------
reinit: System Name: GRP_doping
reinit: -----------------------------------------------------------------------
reinit: System Label: GRP_doping                                                  
reinit: -----------------------------------------------------------------------

initatom: Reading input for the pseudopotentials and atomic orbitals ----------
 Species number:            1  Label: N Atomic number:           7
 Species number:            2  Label: C Atomic number:           6
Ground state valence configuration:   2s02  2p03
Reading pseudopotential information in formatted form from N.psf

Valence configuration for pseudopotential generation:
2s( 2.00) rc: 1.48
2p( 3.00) rc: 1.48
3d( 0.00) rc: 1.48
4f( 0.00) rc: 1.48
Ground state valence configuration:   2s02  2p02
Reading pseudopotential information in formatted form from C.psf

Valence configuration for pseudopotential generation:
2s( 2.00) rc: 1.54
2p( 2.00) rc: 1.54
3d( 0.00) rc: 1.54
4f( 0.00) rc: 1.54
For N, standard SIESTA heuristics set lmxkb to 3
 (one more than the basis l, including polarization orbitals).
Use PS.lmax or PS.KBprojectors blocks to override.
For C, standard SIESTA heuristics set lmxkb to 3
 (one more than the basis l, including polarization orbitals).
Use PS.lmax or PS.KBprojectors blocks to override.

<basis_specs>
===============================================================================
N                    Z=   7    Mass=  14.010        Charge= 0.17977+309
Lmxo=1 Lmxkb= 3    BasisType=split      Semic=F
L=0  Nsemic=0  Cnfigmx=2
          n=1  nzeta=2  polorb=0
            splnorm:   0.15000    
               vcte:    0.0000    
               rinn:    0.0000    
                rcs:    0.0000      0.0000    
            lambdas:    1.0000      1.0000    
L=1  Nsemic=0  Cnfigmx=2
          n=1  nzeta=2  polorb=1
            splnorm:   0.15000    
               vcte:    0.0000    
               rinn:    0.0000    
                rcs:    0.0000      0.0000    
            lambdas:    1.0000      1.0000    
-------------------------------------------------------------------------------
L=0  Nkbl=1  erefs: 0.17977+309
L=1  Nkbl=1  erefs: 0.17977+309
L=2  Nkbl=1  erefs: 0.17977+309
L=3  Nkbl=1  erefs: 0.17977+309
===============================================================================
</basis_specs>

atom: Called for N                     (Z =   7)

read_vps: Pseudopotential generation method:
read_vps: ATM3      Troullier-Martins                       
Total valence charge:    5.00000

read_vps: Pseudopotential includes a core correction:
read_vps: Pseudo-core for xc-correction

xc_check: Exchange-correlation functional:
xc_check: GGA Perdew, Burke & Ernzerhof 1996
V l=0 = -2*Zval/r beyond r=  1.4606
V l=1 = -2*Zval/r beyond r=  1.4606
V l=2 = -2*Zval/r beyond r=  1.4606
V l=3 = -2*Zval/r beyond r=  1.4606
All V_l potentials equal beyond r=  1.4606
This should be close to max(r_c) in ps generation
All pots = -2*Zval/r beyond r=  1.4606

VLOCAL1: 99.0% of the norm of Vloc inside     20.347 Ry
VLOCAL1: 99.9% of the norm of Vloc inside     46.372 Ry
atom: Maximum radius for 4*pi*r*r*local-pseudopot. charge    1.76189
atom: Maximum radius for r*vlocal+2*Zval:    1.53550
GHOST: No ghost state for L =  0
GHOST: No ghost state for L =  1
GHOST: No ghost state for L =  2
GHOST: No ghost state for L =  3

KBgen: Kleinman-Bylander projectors: 
   l= 0   rc=  1.634559   el= -1.363963   Ekb=  5.296955   kbcos=  0.335621
   l= 1   rc=  1.614250   el= -0.521451   Ekb= -5.259161   kbcos= -0.433408
   l= 2   rc=  1.718383   el=  0.001991   Ekb= -1.271464   kbcos= -0.007566
   l= 3   rc=  1.761893   el=  0.003093   Ekb= -0.494769   kbcos= -0.001015

KBgen: Total number of  Kleinman-Bylander projectors:   16
atom: -------------------------------------------------------------------------

atom: SANKEY-TYPE ORBITALS:
atom: Selected multiple-zeta basis: split     

SPLIT: Orbitals with angular momentum L= 0

SPLIT: Basis orbitals for state 2s

SPLIT: PAO cut-off radius determined from an
SPLIT: energy shift=  0.007350 Ry

   izeta = 1
                 lambda =    1.000000
                     rc =    4.071465
                 energy =   -1.356470
                kinetic =    1.176977
    potential(screened) =   -2.533447
       potential(ionic) =   -8.057990

   izeta = 2
                 rmatch =    2.905100
              splitnorm =    0.150000
                 energy =   -1.158343
                kinetic =    1.813009
    potential(screened) =   -2.971352
       potential(ionic) =   -8.901931

SPLIT: Orbitals with angular momentum L= 1

SPLIT: Basis orbitals for state 2p

SPLIT: PAO cut-off radius determined from an
SPLIT: energy shift=  0.007350 Ry

   izeta = 1
                 lambda =    1.000000
                     rc =    4.972977
                 energy =   -0.513884
                kinetic =    3.441732
    potential(screened) =   -3.955616
       potential(ionic) =   -9.287901

   izeta = 2
                 rmatch =    3.054066
              splitnorm =    0.150000
                 energy =   -0.318226
                kinetic =    5.125348
    potential(screened) =   -5.443573
       potential(ionic) =  -11.380999

POLgen: Perturbative polarization orbital with L=  2

POLgen: Polarization orbital for state 2p

   izeta = 1
                     rc =    4.972977
                 energy =    1.607437
                kinetic =    3.268125
    potential(screened) =   -1.660688
       potential(ionic) =   -5.973652
atom: Total number of Sankey-type orbitals: 13

atm_pop: Valence configuration (for local Pseudopot. screening):
 2s( 2.00)                                                            
 2p( 3.00)                                                            
Vna: chval, zval:    5.00000   5.00000

Vna:  Cut-off radius for the neutral-atom potential:   4.972977
comcore: Pseudo-core radius Rcore=  1.554824

atom: _________________________________________________________________________

<basis_specs>
===============================================================================
C                    Z=   6    Mass=  12.010        Charge= 0.17977+309
Lmxo=1 Lmxkb= 3    BasisType=split      Semic=F
L=0  Nsemic=0  Cnfigmx=2
          n=1  nzeta=2  polorb=0
            splnorm:   0.15000    
               vcte:    0.0000    
               rinn:    0.0000    
                rcs:    0.0000      0.0000    
            lambdas:    1.0000      1.0000    
L=1  Nsemic=0  Cnfigmx=2
          n=1  nzeta=2  polorb=1
            splnorm:   0.15000    
               vcte:    0.0000    
               rinn:    0.0000    
                rcs:    0.0000      0.0000    
            lambdas:    1.0000      1.0000    
-------------------------------------------------------------------------------
L=0  Nkbl=1  erefs: 0.17977+309
L=1  Nkbl=1  erefs: 0.17977+309
L=2  Nkbl=1  erefs: 0.17977+309
L=3  Nkbl=1  erefs: 0.17977+309
===============================================================================
</basis_specs>

atom: Called for C                     (Z =   6)

read_vps: Pseudopotential generation method:
read_vps: ATM3      Troullier-Martins                       
Total valence charge:    4.00000

read_vps: Pseudopotential includes a core correction:
read_vps: Pseudo-core for xc-correction

xc_check: Exchange-correlation functional:
xc_check: GGA Perdew, Burke & Ernzerhof 1996
V l=0 = -2*Zval/r beyond r=  1.5227
V l=1 = -2*Zval/r beyond r=  1.5227
V l=2 = -2*Zval/r beyond r=  1.5227
V l=3 = -2*Zval/r beyond r=  1.5038
All V_l potentials equal beyond r=  1.5227
This should be close to max(r_c) in ps generation
All pots = -2*Zval/r beyond r=  1.5227

VLOCAL1: 99.0% of the norm of Vloc inside     18.722 Ry
VLOCAL1: 99.9% of the norm of Vloc inside     42.668 Ry
atom: Maximum radius for 4*pi*r*r*local-pseudopot. charge    1.83678
atom: Maximum radius for r*vlocal+2*Zval:    1.58088
GHOST: No ghost state for L =  0
GHOST: No ghost state for L =  1
GHOST: No ghost state for L =  2
GHOST: No ghost state for L =  3

KBgen: Kleinman-Bylander projectors: 
   l= 0   rc=  1.704034   el= -1.009801   Ekb=  5.335044   kbcos=  0.316824
   l= 1   rc=  1.704034   el= -0.388707   Ekb= -3.785862   kbcos= -0.366464
   l= 2   rc=  1.791422   el=  0.001971   Ekb= -0.970471   kbcos= -0.009212
   l= 3   rc=  1.859892   el=  0.003065   Ekb= -0.399525   kbcos= -0.001223

KBgen: Total number of  Kleinman-Bylander projectors:   16
atom: -------------------------------------------------------------------------

atom: SANKEY-TYPE ORBITALS:
atom: Selected multiple-zeta basis: split     

SPLIT: Orbitals with angular momentum L= 0

SPLIT: Basis orbitals for state 2s

SPLIT: PAO cut-off radius determined from an
SPLIT: energy shift=  0.007350 Ry

   izeta = 1
                 lambda =    1.000000
                     rc =    4.632753
                 energy =   -1.002270
                kinetic =    0.855760
    potential(screened) =   -1.858031
       potential(ionic) =   -5.417575

   izeta = 2
                 rmatch =    3.431921
              splitnorm =    0.150000
                 energy =   -0.867111
                kinetic =    1.300804
    potential(screened) =   -2.167915
       potential(ionic) =   -5.962684

SPLIT: Orbitals with angular momentum L= 1

SPLIT: Basis orbitals for state 2p

SPLIT: PAO cut-off radius determined from an
SPLIT: energy shift=  0.007350 Ry

   izeta = 1
                 lambda =    1.000000
                     rc =    5.658549
                 energy =   -0.381140
                kinetic =    2.399701
    potential(screened) =   -2.780841
       potential(ionic) =   -6.206085

   izeta = 2
                 rmatch =    3.653288
              splitnorm =    0.150000
                 energy =   -0.249149
                kinetic =    3.542762
    potential(screened) =   -3.791911
       potential(ionic) =   -7.581078

POLgen: Perturbative polarization orbital with L=  2

POLgen: Polarization orbital for state 2p

   izeta = 1
                     rc =    5.658549
                 energy =    1.109913
                kinetic =    2.304789
    potential(screened) =   -1.194876
       potential(ionic) =   -4.013592
atom: Total number of Sankey-type orbitals: 13

atm_pop: Valence configuration (for local Pseudopot. screening):
 2s( 2.00)                                                            
 2p( 2.00)                                                            
Vna: chval, zval:    4.00000   4.00000

Vna:  Cut-off radius for the neutral-atom potential:   5.658549
comcore: Pseudo-core radius Rcore=  1.791422

atom: _________________________________________________________________________

prinput: Basis input ----------------------------------------------------------

PAO.BasisType split     

%block ChemicalSpeciesLabel
    1    7 N                       # Species index, atomic number, species label
    2    6 C                       # Species index, atomic number, species label
%endblock ChemicalSpeciesLabel

%block PAO.Basis                 # Define Basis set
N                     2                    # Species label, number of l-shells
 n=2   0   2                         # n, l, Nzeta 
   4.071      2.905   
   1.000      1.000   
 n=2   1   2 P   1                   # n, l, Nzeta, Polarization, NzetaPol
   4.973      3.054   
   1.000      1.000   
C                     2                    # Species label, number of l-shells
 n=2   0   2                         # n, l, Nzeta 
   4.633      3.432   
   1.000      1.000   
 n=2   1   2 P   1                   # n, l, Nzeta, Polarization, NzetaPol
   5.659      3.653   
   1.000      1.000   
%endblock PAO.Basis

prinput: ----------------------------------------------------------------------

coor:   Atomic-coordinates input format  =     Cartesian coordinates
coor:                                          (in Angstroms)

siesta: Atomic coordinates (Bohr) and species
siesta:      2.23554   1.32097   0.00000  1        1
siesta:      4.56367   2.66461   0.00000  1        2
siesta:     11.54782   1.32097   0.00000  1        3
siesta:     13.87595   2.66461   0.00000  1        4
siesta:     20.86199   1.32097   0.00000  1        5
siesta:     23.19013   2.66461   0.00000  1        6
siesta:      6.89205   9.38661   0.00000  1        7
siesta:      9.22019  10.73026   0.00000  1        8
siesta:     16.20434   9.38661   0.00000  1        9
siesta:     18.53247  10.73026   0.00000  1       10
siesta:     11.54857  17.45226   0.00000  1       11
siesta:     13.87670  18.79590   0.00000  1       12
siesta:     25.51851   9.38661   0.00000  1       13
siesta:     27.84664  10.73026   0.00000  1       14
siesta:     20.86274  17.45226   0.00000  1       15
siesta:     23.19088  18.79590   0.00000  1       16
siesta:     30.17503  17.45226   0.00000  1       17
siesta:     32.50316  18.79590   0.00000  1       18
siesta:     32.50328  21.48508   0.00000  2       19
siesta:     34.83141  22.82873   0.00000  2       20
siesta:     34.83116  17.45226   0.00000  2       21
siesta:     37.15930  18.79590   0.00000  2       22
siesta:     32.50291  13.41944   0.00000  2       23
siesta:     34.83104  14.76308   0.00000  2       24
siesta:     30.17465   9.38661   0.00000  2       25
siesta:     32.50278  10.73026   0.00000  2       26
siesta:     27.84639   5.35379   0.00000  2       27
siesta:     30.17453   6.69743   0.00000  2       28
siesta:     27.84714  21.48508   0.00000  2       29
siesta:     30.17527  22.82873   0.00000  2       30
siesta:      6.89168   1.32097   0.00000  2       31
siesta:      9.21981   2.66461   0.00000  2       32
siesta:     16.20396   1.32097   0.00000  2       33
siesta:     18.53210   2.66461   0.00000  2       34
siesta:     25.51813   1.32097   0.00000  2       35
siesta:     27.84627   2.66461   0.00000  2       36
siesta:      4.56380   5.35379   0.00000  2       37
siesta:      6.89193   6.69743   0.00000  2       38
siesta:      9.21994   5.35379   0.00000  2       39
siesta:     11.54807   6.69743   0.00000  2       40
siesta:     13.87608   5.35379   0.00000  2       41
siesta:     16.20421   6.69743   0.00000  2       42
siesta:     18.53411   5.35379   0.00000  2       43
siesta:     20.86224   6.69743   0.00000  2       44
siesta:     23.19025   5.35379   0.00000  2       45
siesta:     25.51838   6.69743   0.00000  2       46
siesta:     11.54820   9.38661   0.00000  2       47
siesta:     13.87633  10.73026   0.00000  2       48
siesta:     20.86237   9.38661   0.00000  2       49
siesta:     23.19050  10.73026   0.00000  2       50
siesta:      9.22031  13.41944   0.00000  2       51
siesta:     11.54845  14.76308   0.00000  2       52
siesta:     13.87645  13.41944   0.00000  2       53
siesta:     16.20459  14.76308   0.00000  2       54
siesta:     18.53448  13.41944   0.00000  2       55
siesta:     20.86262  14.76308   0.00000  2       56
siesta:     16.20471  17.45226   0.00000  2       57
siesta:     18.53284  18.79590   0.00000  2       58
siesta:     13.87683  21.48508   0.00000  2       59
siesta:     16.20496  22.82873   0.00000  2       60
siesta:     18.53486  21.48508   0.00000  2       61
siesta:     20.86299  22.82873   0.00000  2       62
siesta:     23.19063  13.41944   0.00000  2       63
siesta:     25.51876  14.76308   0.00000  2       64
siesta:     27.84677  13.41944   0.00000  2       65
siesta:     30.17490  14.76308   0.00000  2       66
siesta:     25.51888  17.45226   0.00000  2       67
siesta:     27.84702  18.79590   0.00000  2       68
siesta:     23.19100  21.48508   0.00000  2       69
siesta:     25.51913  22.82873   0.00000  2       70
siesta:     37.16131  21.48508   0.00000  2       71
siesta:     39.48945  22.82873   0.00000  2       72

siesta: System type = slab      

initatomlists: Number of atoms, orbitals, and projectors:     72   936  1152

siesta: ******************** Simulation parameters ****************************
siesta:
siesta: The following are some of the parameters of the simulation.
siesta: A complete list of the parameters used, including default values,
siesta: can be found in file out.fdf
siesta:
redata: Non-Collinear-spin run           =     F
redata: SpinPolarized (Up/Down) run      =     F
redata: Number of spin components        =     1
redata: Long output                      =     F
redata: Number of Atomic Species         =        2
redata: Charge density info will appear in .RHO file
redata: Write Mulliken Pop.              =     NO
redata: Mesh Cutoff                      =   200.0000  Ry
redata: Net charge of the system         =     0.0000 |e|
redata: Max. number of SCF Iter          =      500
redata: SCF convergence failure will abort job
redata: Performing Pulay mixing using    =    10 iterations
redata: Mix DM in first SCF step ?       =     F
redata: Write Pulay info on disk?        =     F
redata: Discard 1st Pulay DM after  kick =     F
redata: New DM Mixing Weight             =     0.0500
redata: New DM Occupancy tolerance       = 0.000000000001
redata: No kicks to SCF
redata: DM Mixing Weight for Kicks       =     0.5000
redata: DM Tolerance for SCF             =     0.000100
redata: Require Energy convergence for SCF =     F
redata: DM Energy tolerance for SCF      =     0.000100 eV
redata: Require Harris convergence for SCF =     F
redata: DM Harris energy tolerance for SCF =     0.000100 eV
redata: Using Saved Data (generic)   =     F
redata: Use continuation files for DM    =     T
redata: Neglect nonoverlap interactions  =     F
redata: Method of Calculation            =     Diagonalization
redata: Divide and Conquer               =     T
redata: Electronic Temperature           =     0.0019  Ry
redata: Fix the spin of the system       =     F
redata: Dynamics option                  =     Verlet MD run
redata: Initial MD time step             =        1
redata:   Final MD time step             =        1
redata: Length of MD time step           =     1.0000  fs
redata: Initial Temperature of MD run    =     0.0000  K
redata: Perform a MD quench              =     F
redata: ***********************************************************************
Total number of electrons:   306.000000
Total ionic charge:   306.000000

* ProcessorY, Blocksize:    2  24

k-point displ. along   1 input, could be:     0.00    0.50
k-point displ. along   2 input, could be:     0.00    0.50
 Kpoints in:          364 . Kpoints trimmed:          352

siesta: k-grid: Number of k-points =   352
siesta: k-grid: Cutoff (effective) =     5.000 Ang
siesta: k-grid: Supercell and displacements
siesta: k-grid:   26   0   0      0.000
siesta: k-grid:    0  26   0      0.000
siesta: k-grid:    0   0   1      0.000
Naive supercell factors:     2    2    2

superc: Internal auxiliary supercell:     2 x     2 x     2  =       8
superc: Number of atoms, orbitals, and projectors:    576   7488   9216

* Maximum dynamic memory allocated =     6 MB

siesta:                 ==============================
                            Begin MD step =      1
                        ==============================

superc: Internal auxiliary supercell:     2 x     2 x     2  =       8
superc: Number of atoms, orbitals, and projectors:    576   7488   9216

outcell: Unit cell vectors (Ang):
       14.785000    0.000000    0.000000
        7.393000   12.805052    0.000000
        0.000000    0.000000   10.000000

outcell: Cell vector modules (Ang)   :   14.785000   14.786000   10.000000
outcell: Cell angles (23,13,12) (deg):     90.0000     90.0000     60.0000
outcell: Cell volume (Ang**3)        :   1893.2269
New_DM. Step:     1
Initializing Density Matrix...

iodm: Reading Density Matrix from files
 Read DM has different structure. Fixing...

InitMesh: MESH =   120 x   120 x    90 =     1296000
InitMesh: Mesh cutoff (required, used) =   200.000   223.865 Ry

* Maximum dynamic memory allocated =   181 MB

stepf: Fermi-Dirac step function

siesta: Program's energy decomposition (eV):
siesta: Ebs     =     -4724.367029
siesta: Eions   =     21296.454266
siesta: Ena     =      4152.977508
siesta: Ekin    =      9108.747210
siesta: Enl     =     -1195.116554
siesta: DEna    =      -308.578598
siesta: DUscf   =       342.563773
siesta: DUext   =         0.000000
siesta: Exc     =     -4508.612713
siesta: eta*DQ  =         0.000000
siesta: Emadel  =         0.000000
siesta: Emeta   =         0.000000
siesta: Emolmec =         0.000000
siesta: Ekinion =         0.000000
siesta: Eharris =    -14579.510667
siesta: Etot    =    -13704.473639
siesta: FreeEng =    -13704.473639

siesta: iscf   Eharris(eV)      E_KS(eV)   FreeEng(eV)   dDmax  Ef(eV)
siesta:    1   -14579.5107   -13704.4736   -13704.4736  0.7128 -1.3376
timer: Routine,Calls,Time,% = IterSCF        1    6424.118  99.80
elaps: Routine,Calls,Wall,% = IterSCF        1     803.979  99.80
siesta:    2   -17835.5350   -12052.5612   -12052.5947  1.4219 -6.2393
siesta:    3   -13852.1811   -13642.6057   -13642.6635  0.4587 -1.9924
siesta:    4   -13820.2407   -13668.3496   -13668.3790  0.5978 -2.0923
siesta:    5   -13815.1098   -13674.0595   -13674.0841  0.5870 -2.1605
siesta:    6   -13786.4081   -13749.7644   -13749.7860  0.1317 -3.3916
siesta:    7   -13787.6817   -13761.9585   -13761.9798  0.1263 -3.4546
siesta:    8   -13785.2343   -13792.0762   -13792.0959  0.0398 -3.2422
siesta:    9   -13784.6749   -13791.4453   -13791.4635  0.0543 -3.2666
siesta:   10   -13783.8511   -13789.3215   -13789.3398  0.0354 -3.1985
siesta:   11   -13783.8421   -13789.7492   -13789.7680  0.0213 -3.1608
siesta:   12   -13783.8324   -13783.9149   -13783.9338  0.0044 -3.1661
siesta:   13   -13783.8309   -13783.2185   -13783.2373  0.0029 -3.1660
siesta:   14   -13783.8307   -13783.1713   -13783.1901  0.0022 -3.1675
siesta:   15   -13783.8302   -13783.5504   -13783.5692  0.0011 -3.1678
siesta:   16   -13783.8302   -13783.6925   -13783.7113  0.0005 -3.1675
siesta:   17   -13783.8302   -13783.7309   -13783.7497  0.0004 -3.1675
siesta:   18   -13783.8302   -13783.7965   -13783.8153  0.0002 -3.1674
siesta:   19   -13783.8302   -13783.8509   -13783.8697  0.0001 -3.1673

siesta: E_KS(eV) =           -13783.8428

siesta: E_KS - E_eggbox =    -13783.8428

siesta: Atomic forces (eV/Ang):
----------------------------------------
   Tot    0.342370   -0.062151    0.000000
----------------------------------------
   Max    0.740988
   Res    0.328369    sqrt( Sum f_i^2 / 3N )
----------------------------------------
   Max    0.740988    constrained

Stress-tensor-Voigt (kbar):       30.88       28.07        0.24        2.63        0.00        0.00
(Free)E + p*V (eV/cell)   -13807.1767
Target enthalpy (eV/cell)   -13783.8615

siesta: Stress tensor (static) (eV/Ang**3):
         0.019275    0.001639    0.000000
         0.001639    0.017519    0.000000
         0.000000    0.000000    0.000151

siesta: Pressure (static):        -19.73110111  kBar

siesta: Stress tensor (total) (eV/Ang**3):
         0.019275    0.001639    0.000000
         0.001639    0.017519    0.000000
         0.000000    0.000000    0.000151

siesta: Pressure (total):        -19.73110111  kBar

siesta: Temp_ion =       0.000 K

* Maximum dynamic memory allocated =   196 MB

siesta: Program's energy decomposition (eV):
siesta: Ebs     =     -4428.349910
siesta: Eions   =     21296.454266
siesta: Ena     =      4152.977508
siesta: Ekin    =      9334.347395
siesta: Enl     =     -1324.543968
siesta: DEna    =      -210.767636
siesta: DUscf   =        23.100774
siesta: DUext   =         0.000000
siesta: Exc     =     -4462.502558
siesta: eta*DQ  =         0.000000
siesta: Emadel  =         0.000000
siesta: Emeta   =         0.000000
siesta: Emolmec =         0.000000
siesta: Ekinion =         0.000000
siesta: Eharris =    -13783.830176
siesta: Etot    =    -13783.842752
siesta: FreeEng =    -13783.861549

siesta: Final energy (eV):
siesta:  Band Struct. =   -4428.349910
siesta:       Kinetic =    9334.347395
siesta:       Hartree =   26535.067902
siesta:    Ext. field =       0.000000
siesta:   Exch.-corr. =   -4462.502558
siesta:  Ion-electron =  -61797.802267
siesta:       Ion-ion =   16607.046776
siesta:       Ekinion =       0.000000
siesta:         Total =  -13783.842752

siesta: Atomic forces (eV/Ang):
siesta:      1   -0.706242   -0.433912    0.000000
siesta:      2    0.706238    0.430506    0.000000
siesta:      3   -0.684623   -0.438683    0.000000
siesta:      4    0.707900    0.434272    0.000000
siesta:      5   -0.718786   -0.435443    0.000000
siesta:      6    0.704559    0.431200    0.000000
siesta:      7   -0.699248   -0.418436    0.000000
siesta:      8    0.707621    0.436496    0.000000
siesta:      9   -0.683463   -0.419444    0.000000
siesta:     10    0.740988    0.427255    0.000000
siesta:     11   -0.698204   -0.422401    0.000000
siesta:     12    0.706620    0.437946    0.000000
siesta:     13   -0.688848   -0.422488    0.000000
siesta:     14    0.708576    0.437203    0.000000
siesta:     15   -0.712233   -0.418860    0.000000
siesta:     16    0.704266    0.438693    0.000000
siesta:     17   -0.687691   -0.419671    0.000000
siesta:     18    0.708171    0.435891    0.000000
siesta:     19    0.169471    0.351363    0.000000
siesta:     20   -0.114637   -0.350572    0.000000
siesta:     21    0.393241   -0.051641    0.000000
siesta:     22   -0.371078    0.051913    0.000000
siesta:     23    0.496200    0.273212    0.000000
siesta:     24   -0.477603   -0.284294    0.000000
siesta:     25    0.394898   -0.054503    0.000000
siesta:     26   -0.381449    0.046422    0.000000
siesta:     27    0.495895    0.274240    0.000000
siesta:     28   -0.479163   -0.284755    0.000000
siesta:     29    0.495719    0.277789    0.000000
siesta:     30   -0.495001   -0.259176    0.000000
siesta:     31    0.395559   -0.070782    0.000000
siesta:     32   -0.392127    0.045335    0.000000
siesta:     33    0.399722   -0.070832    0.000000
siesta:     34   -0.360205    0.045199    0.000000
siesta:     35    0.397917   -0.070602    0.000000
siesta:     36   -0.381803    0.044679    0.000000
siesta:     37    0.151827    0.349851    0.000000
siesta:     38   -0.152812   -0.358430    0.000000
siesta:     39    0.494493    0.274224    0.000000
siesta:     40   -0.492441   -0.278841    0.000000
siesta:     41    0.171171    0.344298    0.000000
siesta:     42   -0.121470   -0.367486    0.000000
siesta:     43    0.457770    0.284235    0.000000
siesta:     44   -0.496532   -0.281900    0.000000
siesta:     45    0.165632    0.343904    0.000000
siesta:     46   -0.151202   -0.359588    0.000000
siesta:     47    0.392315   -0.052889    0.000000
siesta:     48   -0.391802    0.050252    0.000000
siesta:     49    0.370467   -0.048124    0.000000
siesta:     50   -0.395901    0.051239    0.000000
siesta:     51    0.152177    0.351168    0.000000
siesta:     52   -0.152760   -0.356433    0.000000
siesta:     53    0.498760    0.272586    0.000000
siesta:     54   -0.461923   -0.285427    0.000000
siesta:     55    0.124820    0.355675    0.000000
siesta:     56   -0.155993   -0.358405    0.000000
siesta:     57    0.395194   -0.054261    0.000000
siesta:     58   -0.359021    0.048267    0.000000
siesta:     59    0.185991    0.344282    0.000000
siesta:     60   -0.113036   -0.353007    0.000000
siesta:     61    0.457004    0.283255    0.000000
siesta:     62   -0.499024   -0.262634    0.000000
siesta:     63    0.495698    0.272947    0.000000
siesta:     64   -0.491998   -0.280605    0.000000
siesta:     65    0.164993    0.346274    0.000000
siesta:     66   -0.150774   -0.358892    0.000000
siesta:     67    0.392802   -0.051830    0.000000
siesta:     68   -0.391474    0.049367    0.000000
siesta:     69    0.165068    0.347694    0.000000
siesta:     70   -0.156022   -0.343923    0.000000
siesta:     71    0.455190    0.283634    0.000000
siesta:     72   -0.515974   -0.255751    0.000000
siesta: ----------------------------------------
siesta:    Tot    0.342370   -0.062151    0.000000

siesta: Stress tensor (static) (eV/Ang**3):
siesta:     0.019275    0.001639    0.000000
siesta:     0.001639    0.017519    0.000000
siesta:     0.000000    0.000000    0.000151

siesta: Cell volume =       1893.226895 Ang**3

siesta: Pressure (static):
siesta:                Solid            Molecule  Units
siesta:          -0.00013413         -0.00012696  Ry/Bohr**3
siesta:          -0.01231505         -0.01165672  eV/Ang**3
siesta:         -19.73110111        -18.67631848  kBar
(Free)E+ p_basis*V_orbitals  =      -13755.697276
(Free)Eharris+ p_basis*V_orbitals  =      -13755.676508

siesta: Electric dipole (a.u.)  =    0.000000    0.000000    0.000000
siesta: Electric dipole (Debye) =    0.000000    0.000000    0.000000

* Maximum dynamic memory allocated : Node    0 =   196 MB
* Maximum dynamic memory allocated : Node    1 =    72 MB
* Maximum dynamic memory allocated : Node    2 =    74 MB
* Maximum dynamic memory allocated : Node    3 =   187 MB
* Maximum dynamic memory allocated : Node    4 =   195 MB
* Maximum dynamic memory allocated : Node    5 =    72 MB
* Maximum dynamic memory allocated : Node    6 =    74 MB
* Maximum dynamic memory allocated : Node    7 =   180 MB

* Maximum memory occured during matrixMtoO                    

timer: CPU execution times:
timer:  Routine       Calls   Time/call    Tot.time        %
timer:  siesta            1  120349.573  120349.573   100.00
timer:  Setup             1       3.780       3.780     0.00
timer:  bands             1       0.016       0.016     0.00
timer:  writewave         1       0.039       0.039     0.00
timer:  KSV_init          1       0.008       0.008     0.00
timer:  IterMD            1  120337.706  120337.706    99.99
timer:  hsparse           1       0.254       0.254     0.00
timer:  overlap           1       7.668       7.668     0.01
timer:  IterSCF          19    6325.364  120181.919    99.86
timer:  kinefsm           2       3.924       7.847     0.01
timer:  nlefsm            2      18.039      36.078     0.03
timer:  DHSCF            20      81.920    1638.406     1.36
timer:  DHSCF1            1       0.760       0.760     0.00
timer:  DHSCF2            1      32.233      32.233     0.03
timer:  REORD           162       0.010       1.650     0.00
timer:  POISON           21       2.245      47.145     0.04
timer:  DHSCF3           20      78.773    1575.468     1.31
timer:  rhoofd           20      14.845     296.905     0.25
timer:  cellXC           20       3.507      70.138     0.06
timer:  vmat             20      39.783     795.652     0.66
timer:  MolMec            2       0.000       0.000     0.00
timer:  diagon           19    6241.607  118590.534    98.54
timer:  c-eigval       6688       6.668   44593.662    37.05
timer:  c-buildHS      6688       0.114     762.114     0.63
timer:  cdiag         13376       6.854   91679.365    76.18
timer:  cdiag1        13376       0.427    5708.490     4.74
timer:  cdiag2        13376       1.903   25449.595    21.15
timer:  cdiag3        13376       3.948   52810.305    43.88
timer:  cdiag4        13376       0.206    2748.971     2.28
timer:  c-eigvec       6688       7.224   48312.327    40.14
timer:  c-buildD       6688       3.832   25629.238    21.30
timer:  DHSCF4            1      28.850      28.850     0.02
timer:  dfscf             1      27.075      27.075     0.02
timer:  overfsm           1       0.374       0.374     0.00
timer:  optical           1       7.133       7.133     0.01
  

elaps: ELAPSED times:
elaps:  Routine       Calls   Time/call    Tot.time        %
elaps:  siesta            1   15059.753   15059.753   100.00
elaps:  Setup             1       0.488       0.488     0.00
elaps:  bands             1       0.002       0.002     0.00
elaps:  writewave         1       0.005       0.005     0.00
elaps:  KSV_init          1       0.001       0.001     0.00
elaps:  IterMD            1   15058.243   15058.243    99.99
elaps:  hsparse           1       0.032       0.032     0.00
elaps:  overlap           1       0.956       0.956     0.01
elaps:  IterSCF          19     791.519   15038.869    99.86
elaps:  kinefsm           2       0.490       0.980     0.01
elaps:  nlefsm            2       2.320       4.641     0.03
elaps:  DHSCF            20      10.400     207.992     1.38
elaps:  DHSCF1            1       0.098       0.098     0.00
elaps:  DHSCF2            1       4.027       4.027     0.03
elaps:  REORD           162       0.001       0.220     0.00
elaps:  POISON           21       0.281       5.901     0.04
elaps:  DHSCF3           20       9.854     197.073     1.31
elaps:  rhoofd           20       3.308      66.153     0.44
elaps:  cellXC           20       0.438       8.757     0.06
elaps:  vmat             20       4.975      99.509     0.66
elaps:  MolMec            2       0.000       0.000     0.00
elaps:  diagon           19     781.045   14839.853    98.54
elaps:  c-eigval       6688       0.834    5579.382    37.05
elaps:  c-buildHS      6688       0.016     103.743     0.69
elaps:  cdiag         13376       0.846   11321.762    75.18
elaps:  cdiag1        13376       0.053     710.657     4.72
elaps:  cdiag2        13376       0.238    3184.235    21.14
elaps:  cdiag3        13376       0.495    6616.507    43.94
elaps:  cdiag4        13376       0.026     346.231     2.30
elaps:  c-eigvec       6688       0.887    5932.875    39.40
elaps:  c-buildD       6688       0.496    3319.797    22.04
elaps:  DHSCF4            1       6.645       6.645     0.04
elaps:  dfscf             1       6.273       6.273     0.04
elaps:  overfsm           1       0.047       0.047     0.00
elaps:  optical           1       0.001       0.001     0.00
  
>> End of run:   4-DEC-2015   4:17:05
