Siesta Version:                                        siesta-3.2-pl-3
Architecture  : x86_64-unknown-linux-gnu--unknown
Compiler flags: mpiifort -g -O2 -fPIC -xSSE4.1 -fp-model source -shared-intel 
PARALLEL version

* Running on    8 nodes in parallel
>> Start of run:  28-NOV-2015  13:20:14

                           ***********************       
                           *  WELCOME TO SIESTA  *       
                           ***********************       

reinit: Reading from standard input
************************** Dump of input data file ****************************
#(1) General system descriptors
SystemName            GRP_doping    # Descriptive name of the system
SystemLabel           GRP_doping    # Short name for naming files
%include STRUCT.fdf
%include KPT.fdf
%include BASIS.fdf
#%include TS.fdf # for transiesta calculation
#(4) DFT, Grid, SCF
XC.functional         GGA           # LDA or GGA (default = LDA)
XC.authors            PBE           # CA (Ceperley-Aldr) = PZ
                                    #    (Perdew-Zunger) - LDA - Default
                                    # PW92 (Perdew-Wang-92) - LDA
                                    # PBE (Perdew-Burke-Ernzerhof) - GGA
MeshCutoff            200.000000    Ry      # Default: 50.0 Ry ~ 0.444 Bohr
                                    #         100.0 Ry ~ 0.314 Bohr
MaxSCFIterations      500           # Default: 50
DM.MixingWeight       0.05          # Default: 0.25
DM.NumberPulay        10            # Default: 0
DM.PulayOnFile        F             # SystemLabel.P1, SystemLabel.P2
DM.Tolerance          1.d-4         # Default: 1.d-4
DM.UseSaveDM          .true.        # because of the bug
SCFMustConverge       .true.
NeglNonOverlapInt     F             # Default: F
#(5) Eigenvalue problem: order-N or diagonalization
SolutionMethod        Diagon        # or Transiesta
ElectronicTemperature 300.0 K       # Default: 300.0 K
#(6) Molecular dynamics and relaxations
#MD.TypeOfRun          CG            # Type of dynamics:
#MD.VariableCell       F
#MD.NumCGsteps         0           # 0 for single-point / 100 for gopt
#MD.MaxCGDispl         0.2 Bohr      # Default: 0.2 Bohr
#MD.MaxForceTol        0.02 eV/Ang   # Default: 0.04 eV/Ang
#MD.MaxStressTol       1.0 GPa       # Default: 1.0 GPa
# Geometry Constraints
#%block GeometryConstraints
#	position from 1 to 44
#%endblock GeometryConstraints
************************** End of input data file *****************************

reinit: -----------------------------------------------------------------------
reinit: System Name: GRP_doping
reinit: -----------------------------------------------------------------------
reinit: System Label: GRP_doping                                                  
reinit: -----------------------------------------------------------------------

initatom: Reading input for the pseudopotentials and atomic orbitals ----------
 Species number:            1  Label: C Atomic number:           6
 Species number:            2  Label: B Atomic number:           5
Ground state valence configuration:   2s02  2p02
Reading pseudopotential information in formatted form from C.psf

Valence configuration for pseudopotential generation:
2s( 2.00) rc: 1.54
2p( 2.00) rc: 1.54
3d( 0.00) rc: 1.54
4f( 0.00) rc: 1.54
Ground state valence configuration:   2s02  2p01
Reading pseudopotential information in formatted form from B.psf

Valence configuration for pseudopotential generation:
2s( 2.00) rc: 1.74
2p( 1.00) rc: 1.74
3d( 0.00) rc: 1.74
4f( 0.00) rc: 1.74
For C, standard SIESTA heuristics set lmxkb to 3
 (one more than the basis l, including polarization orbitals).
Use PS.lmax or PS.KBprojectors blocks to override.
For B, standard SIESTA heuristics set lmxkb to 3
 (one more than the basis l, including polarization orbitals).
Use PS.lmax or PS.KBprojectors blocks to override.

<basis_specs>
===============================================================================
C                    Z=   6    Mass=  12.010        Charge= 0.17977+309
Lmxo=1 Lmxkb= 3    BasisType=split      Semic=F
L=0  Nsemic=0  Cnfigmx=2
          n=1  nzeta=2  polorb=0
            splnorm:   0.15000    
               vcte:    0.0000    
               rinn:    0.0000    
                rcs:    0.0000      0.0000    
            lambdas:    1.0000      1.0000    
L=1  Nsemic=0  Cnfigmx=2
          n=1  nzeta=2  polorb=1
            splnorm:   0.15000    
               vcte:    0.0000    
               rinn:    0.0000    
                rcs:    0.0000      0.0000    
            lambdas:    1.0000      1.0000    
-------------------------------------------------------------------------------
L=0  Nkbl=1  erefs: 0.17977+309
L=1  Nkbl=1  erefs: 0.17977+309
L=2  Nkbl=1  erefs: 0.17977+309
L=3  Nkbl=1  erefs: 0.17977+309
===============================================================================
</basis_specs>

atom: Called for C                     (Z =   6)

read_vps: Pseudopotential generation method:
read_vps: ATM3      Troullier-Martins                       
Total valence charge:    4.00000

read_vps: Pseudopotential includes a core correction:
read_vps: Pseudo-core for xc-correction

xc_check: Exchange-correlation functional:
xc_check: GGA Perdew, Burke & Ernzerhof 1996
V l=0 = -2*Zval/r beyond r=  1.5227
V l=1 = -2*Zval/r beyond r=  1.5227
V l=2 = -2*Zval/r beyond r=  1.5227
V l=3 = -2*Zval/r beyond r=  1.5038
All V_l potentials equal beyond r=  1.5227
This should be close to max(r_c) in ps generation
All pots = -2*Zval/r beyond r=  1.5227

VLOCAL1: 99.0% of the norm of Vloc inside     18.722 Ry
VLOCAL1: 99.9% of the norm of Vloc inside     42.668 Ry
atom: Maximum radius for 4*pi*r*r*local-pseudopot. charge    1.83678
atom: Maximum radius for r*vlocal+2*Zval:    1.58088
GHOST: No ghost state for L =  0
GHOST: No ghost state for L =  1
GHOST: No ghost state for L =  2
GHOST: No ghost state for L =  3

KBgen: Kleinman-Bylander projectors: 
   l= 0   rc=  1.704034   el= -1.009801   Ekb=  5.335044   kbcos=  0.316824
   l= 1   rc=  1.704034   el= -0.388707   Ekb= -3.785862   kbcos= -0.366464
   l= 2   rc=  1.791422   el=  0.001971   Ekb= -0.970471   kbcos= -0.009212
   l= 3   rc=  1.859892   el=  0.003065   Ekb= -0.399525   kbcos= -0.001223

KBgen: Total number of  Kleinman-Bylander projectors:   16
atom: -------------------------------------------------------------------------

atom: SANKEY-TYPE ORBITALS:
atom: Selected multiple-zeta basis: split     

SPLIT: Orbitals with angular momentum L= 0

SPLIT: Basis orbitals for state 2s

SPLIT: PAO cut-off radius determined from an
SPLIT: energy shift=  0.007350 Ry

   izeta = 1
                 lambda =    1.000000
                     rc =    4.632753
                 energy =   -1.002270
                kinetic =    0.855760
    potential(screened) =   -1.858031
       potential(ionic) =   -5.417575

   izeta = 2
                 rmatch =    3.431921
              splitnorm =    0.150000
                 energy =   -0.867111
                kinetic =    1.300804
    potential(screened) =   -2.167915
       potential(ionic) =   -5.962684

SPLIT: Orbitals with angular momentum L= 1

SPLIT: Basis orbitals for state 2p

SPLIT: PAO cut-off radius determined from an
SPLIT: energy shift=  0.007350 Ry

   izeta = 1
                 lambda =    1.000000
                     rc =    5.658549
                 energy =   -0.381140
                kinetic =    2.399701
    potential(screened) =   -2.780841
       potential(ionic) =   -6.206085

   izeta = 2
                 rmatch =    3.653288
              splitnorm =    0.150000
                 energy =   -0.249149
                kinetic =    3.542762
    potential(screened) =   -3.791911
       potential(ionic) =   -7.581078

POLgen: Perturbative polarization orbital with L=  2

POLgen: Polarization orbital for state 2p

   izeta = 1
                     rc =    5.658549
                 energy =    1.109913
                kinetic =    2.304789
    potential(screened) =   -1.194876
       potential(ionic) =   -4.013592
atom: Total number of Sankey-type orbitals: 13

atm_pop: Valence configuration (for local Pseudopot. screening):
 2s( 2.00)                                                            
 2p( 2.00)                                                            
Vna: chval, zval:    4.00000   4.00000

Vna:  Cut-off radius for the neutral-atom potential:   5.658549
comcore: Pseudo-core radius Rcore=  1.791422

atom: _________________________________________________________________________

<basis_specs>
===============================================================================
B                    Z=   5    Mass=  10.810        Charge= 0.17977+309
Lmxo=1 Lmxkb= 3    BasisType=split      Semic=F
L=0  Nsemic=0  Cnfigmx=2
          n=1  nzeta=2  polorb=0
            splnorm:   0.15000    
               vcte:    0.0000    
               rinn:    0.0000    
                rcs:    0.0000      0.0000    
            lambdas:    1.0000      1.0000    
L=1  Nsemic=0  Cnfigmx=2
          n=1  nzeta=2  polorb=1
            splnorm:   0.15000    
               vcte:    0.0000    
               rinn:    0.0000    
                rcs:    0.0000      0.0000    
            lambdas:    1.0000      1.0000    
-------------------------------------------------------------------------------
L=0  Nkbl=1  erefs: 0.17977+309
L=1  Nkbl=1  erefs: 0.17977+309
L=2  Nkbl=1  erefs: 0.17977+309
L=3  Nkbl=1  erefs: 0.17977+309
===============================================================================
</basis_specs>

atom: Called for B                     (Z =   5)

read_vps: Pseudopotential generation method:
read_vps: ATM3      Troullier-Martins                       
Total valence charge:    3.00000

read_vps: Pseudopotential includes a core correction:
read_vps: Pseudo-core for xc-correction

xc_check: Exchange-correlation functional:
xc_check: GGA Perdew, Burke & Ernzerhof 1996
V l=0 = -2*Zval/r beyond r=  1.7165
V l=1 = -2*Zval/r beyond r=  1.7165
V l=2 = -2*Zval/r beyond r=  1.7165
V l=3 = -2*Zval/r beyond r=  1.6951
All V_l potentials equal beyond r=  1.7165
This should be close to max(r_c) in ps generation
All pots = -2*Zval/r beyond r=  1.7165

VLOCAL1: 99.0% of the norm of Vloc inside     14.733 Ry
VLOCAL1: 99.9% of the norm of Vloc inside     33.577 Ry
atom: Maximum radius for 4*pi*r*r*local-pseudopot. charge    2.04484
atom: Maximum radius for r*vlocal+2*Zval:    1.75994
GHOST: No ghost state for L =  0
GHOST: No ghost state for L =  1
GHOST: No ghost state for L =  2
GHOST: No ghost state for L =  3

KBgen: Kleinman-Bylander projectors: 
   l= 0   rc=  1.897051   el= -0.693730   Ekb=  4.595746   kbcos=  0.286105
   l= 1   rc=  1.920920   el= -0.265236   Ekb= -2.350715   kbcos= -0.315747
   l= 2   rc=  2.044840   el=  0.002055   Ekb= -0.690767   kbcos= -0.013822
   l= 3   rc=  2.149707   el=  0.003188   Ekb= -0.315358   kbcos= -0.002055

KBgen: Total number of  Kleinman-Bylander projectors:   16
atom: -------------------------------------------------------------------------

atom: SANKEY-TYPE ORBITALS:
atom: Selected multiple-zeta basis: split     

SPLIT: Orbitals with angular momentum L= 0

SPLIT: Basis orbitals for state 2s

SPLIT: PAO cut-off radius determined from an
SPLIT: energy shift=  0.007350 Ry

   izeta = 1
                 lambda =    1.000000
                     rc =    5.422032
                 energy =   -0.686029
                kinetic =    0.576707
    potential(screened) =   -1.262736
       potential(ionic) =   -3.271094

   izeta = 2
                 rmatch =    4.222573
              splitnorm =    0.150000
                 energy =   -0.602132
                kinetic =    0.858975
    potential(screened) =   -1.461107
       potential(ionic) =   -3.582536

SPLIT: Orbitals with angular momentum L= 1

SPLIT: Basis orbitals for state 2p

SPLIT: PAO cut-off radius determined from an
SPLIT: energy shift=  0.007350 Ry

   izeta = 1
                 lambda =    1.000000
                     rc =    6.790259
                 energy =   -0.258578
                kinetic =    1.481412
    potential(screened) =   -1.739989
       potential(ionic) =   -3.657461

   izeta = 2
                 rmatch =    4.608740
              splitnorm =    0.150000
                 energy =   -0.173757
                kinetic =    2.186690
    potential(screened) =   -2.360447
       potential(ionic) =   -4.464260

POLgen: Perturbative polarization orbital with L=  2

POLgen: Polarization orbital for state 2p

   izeta = 1
                     rc =    6.790259
                 energy =    0.684082
                kinetic =    1.471481
    potential(screened) =   -0.787399
       potential(ionic) =   -2.406985
atom: Total number of Sankey-type orbitals: 13

atm_pop: Valence configuration (for local Pseudopot. screening):
 2s( 2.00)                                                            
 2p( 1.00)                                                            
Vna: chval, zval:    3.00000   3.00000

Vna:  Cut-off radius for the neutral-atom potential:   6.790259
comcore: Pseudo-core radius Rcore=  2.122997

atom: _________________________________________________________________________

prinput: Basis input ----------------------------------------------------------

PAO.BasisType split     

%block ChemicalSpeciesLabel
    1    6 C                       # Species index, atomic number, species label
    2    5 B                       # Species index, atomic number, species label
%endblock ChemicalSpeciesLabel

%block PAO.Basis                 # Define Basis set
C                     2                    # Species label, number of l-shells
 n=2   0   2                         # n, l, Nzeta 
   4.633      3.432   
   1.000      1.000   
 n=2   1   2 P   1                   # n, l, Nzeta, Polarization, NzetaPol
   5.659      3.653   
   1.000      1.000   
B                     2                    # Species label, number of l-shells
 n=2   0   2                         # n, l, Nzeta 
   5.422      4.223   
   1.000      1.000   
 n=2   1   2 P   1                   # n, l, Nzeta, Polarization, NzetaPol
   6.790      4.609   
   1.000      1.000   
%endblock PAO.Basis

prinput: ----------------------------------------------------------------------

coor:   Atomic-coordinates input format  =     Cartesian coordinates
coor:                                          (in Angstroms)

siesta: Atomic coordinates (Bohr) and species
siesta:      2.23554   1.32097   0.00000  1        1
siesta:     32.50328  21.48508   0.00000  1        2
siesta:     34.83141  22.82873   0.00000  1        3
siesta:     34.83116  17.45226   0.00000  1        4
siesta:     37.15930  18.79590   0.00000  1        5
siesta:     32.50291  13.41944   0.00000  1        6
siesta:     34.83104  14.76308   0.00000  1        7
siesta:     30.17465   9.38661   0.00000  1        8
siesta:     32.50278  10.73026   0.00000  1        9
siesta:     27.84639   5.35379   0.00000  1       10
siesta:     30.17453   6.69743   0.00000  1       11
siesta:     27.84714  21.48508   0.00000  1       12
siesta:     30.17527  22.82873   0.00000  1       13
siesta:      6.89168   1.32097   0.00000  1       14
siesta:      9.21981   2.66461   0.00000  1       15
siesta:     11.54782   1.32097   0.00000  1       16
siesta:     13.87595   2.66461   0.00000  1       17
siesta:     16.20396   1.32097   0.00000  1       18
siesta:     18.53210   2.66461   0.00000  1       19
siesta:     23.19013   2.66461   0.00000  1       20
siesta:     25.51813   1.32097   0.00000  1       21
siesta:     27.84627   2.66461   0.00000  1       22
siesta:      4.56380   5.35379   0.00000  1       23
siesta:      6.89193   6.69743   0.00000  1       24
siesta:      9.21994   5.35379   0.00000  1       25
siesta:     11.54807   6.69743   0.00000  1       26
siesta:     13.87608   5.35379   0.00000  1       27
siesta:     16.20421   6.69743   0.00000  1       28
siesta:     18.53411   5.35379   0.00000  1       29
siesta:     23.19025   5.35379   0.00000  1       30
siesta:     25.51838   6.69743   0.00000  1       31
siesta:      9.22019  10.73026   0.00000  1       32
siesta:     11.54820   9.38661   0.00000  1       33
siesta:     13.87633  10.73026   0.00000  1       34
siesta:     18.53247  10.73026   0.00000  1       35
siesta:     20.86237   9.38661   0.00000  1       36
siesta:     23.19050  10.73026   0.00000  1       37
siesta:      9.22031  13.41944   0.00000  1       38
siesta:     11.54845  14.76308   0.00000  1       39
siesta:     13.87645  13.41944   0.00000  1       40
siesta:     16.20459  14.76308   0.00000  1       41
siesta:     18.53448  13.41944   0.00000  1       42
siesta:     20.86262  14.76308   0.00000  1       43
siesta:     13.87670  18.79590   0.00000  1       44
siesta:     16.20471  17.45226   0.00000  1       45
siesta:     18.53284  18.79590   0.00000  1       46
siesta:     13.87683  21.48508   0.00000  1       47
siesta:     16.20496  22.82873   0.00000  1       48
siesta:     18.53486  21.48508   0.00000  1       49
siesta:     20.86299  22.82873   0.00000  1       50
siesta:     27.84664  10.73026   0.00000  1       51
siesta:     23.19063  13.41944   0.00000  1       52
siesta:     25.51876  14.76308   0.00000  1       53
siesta:     23.19088  18.79590   0.00000  1       54
siesta:     27.84677  13.41944   0.00000  1       55
siesta:     30.17490  14.76308   0.00000  1       56
siesta:     25.51888  17.45226   0.00000  1       57
siesta:     27.84702  18.79590   0.00000  1       58
siesta:     23.19100  21.48508   0.00000  1       59
siesta:     25.51913  22.82873   0.00000  1       60
siesta:     32.50316  18.79590   0.00000  1       61
siesta:     37.16131  21.48508   0.00000  1       62
siesta:     39.48945  22.82873   0.00000  1       63
siesta:      4.56367   2.66461   0.00000  2       64
siesta:     20.86199   1.32097   0.00000  2       65
siesta:     20.86224   6.69743   0.00000  2       66
siesta:      6.89205   9.38661   0.00000  2       67
siesta:     16.20434   9.38661   0.00000  2       68
siesta:     11.54857  17.45226   0.00000  2       69
siesta:     25.51851   9.38661   0.00000  2       70
siesta:     20.86274  17.45226   0.00000  2       71
siesta:     30.17503  17.45226   0.00000  2       72

siesta: System type = slab      

initatomlists: Number of atoms, orbitals, and projectors:     72   936  1152

siesta: ******************** Simulation parameters ****************************
siesta:
siesta: The following are some of the parameters of the simulation.
siesta: A complete list of the parameters used, including default values,
siesta: can be found in file out.fdf
siesta:
redata: Non-Collinear-spin run           =     F
redata: SpinPolarized (Up/Down) run      =     F
redata: Number of spin components        =     1
redata: Long output                      =     F
redata: Number of Atomic Species         =        2
redata: Charge density info will appear in .RHO file
redata: Write Mulliken Pop.              =     NO
redata: Mesh Cutoff                      =   200.0000  Ry
redata: Net charge of the system         =     0.0000 |e|
redata: Max. number of SCF Iter          =      500
redata: SCF convergence failure will abort job
redata: Performing Pulay mixing using    =    10 iterations
redata: Mix DM in first SCF step ?       =     F
redata: Write Pulay info on disk?        =     F
redata: Discard 1st Pulay DM after  kick =     F
redata: New DM Mixing Weight             =     0.0500
redata: New DM Occupancy tolerance       = 0.000000000001
redata: No kicks to SCF
redata: DM Mixing Weight for Kicks       =     0.5000
redata: DM Tolerance for SCF             =     0.000100
redata: Require Energy convergence for SCF =     F
redata: DM Energy tolerance for SCF      =     0.000100 eV
redata: Require Harris convergence for SCF =     F
redata: DM Harris energy tolerance for SCF =     0.000100 eV
redata: Using Saved Data (generic)   =     F
redata: Use continuation files for DM    =     T
redata: Neglect nonoverlap interactions  =     F
redata: Method of Calculation            =     Diagonalization
redata: Divide and Conquer               =     T
redata: Electronic Temperature           =     0.0019  Ry
redata: Fix the spin of the system       =     F
redata: Dynamics option                  =     Verlet MD run
redata: Initial MD time step             =        1
redata:   Final MD time step             =        1
redata: Length of MD time step           =     1.0000  fs
redata: Initial Temperature of MD run    =     0.0000  K
redata: Perform a MD quench              =     F
redata: ***********************************************************************
Total number of electrons:   279.000000
Total ionic charge:   279.000000

* ProcessorY, Blocksize:    2  24

k-point displ. along   1 input, could be:     0.00    0.50
k-point displ. along   2 input, could be:     0.00    0.50
 Kpoints in:          364 . Kpoints trimmed:          352

siesta: k-grid: Number of k-points =   352
siesta: k-grid: Cutoff (effective) =     5.000 Ang
siesta: k-grid: Supercell and displacements
siesta: k-grid:   26   0   0      0.000
siesta: k-grid:    0  26   0      0.000
siesta: k-grid:    0   0   1      0.000
Naive supercell factors:     2    2    2

superc: Internal auxiliary supercell:     2 x     2 x     2  =       8
superc: Number of atoms, orbitals, and projectors:    576   7488   9216

* Maximum dynamic memory allocated =     6 MB

siesta:                 ==============================
                            Begin MD step =      1
                        ==============================

superc: Internal auxiliary supercell:     2 x     2 x     2  =       8
superc: Number of atoms, orbitals, and projectors:    576   7488   9216

outcell: Unit cell vectors (Ang):
       14.785000    0.000000    0.000000
        7.393000   12.805052    0.000000
        0.000000    0.000000   10.000000

outcell: Cell vector modules (Ang)   :   14.785000   14.786000   10.000000
outcell: Cell angles (23,13,12) (deg):     90.0000     90.0000     60.0000
outcell: Cell volume (Ang**3)        :   1893.2269
New_DM. Step:     1
Initializing Density Matrix...

InitMesh: MESH =   120 x   120 x    90 =     1296000
InitMesh: Mesh cutoff (required, used) =   200.000   223.865 Ry

* Maximum dynamic memory allocated =   207 MB

stepf: Fermi-Dirac step function

siesta: Program's energy decomposition (eV):
siesta: Ebs     =     -4462.277039
siesta: Eions   =     17250.500670
siesta: Ena     =      3769.675842
siesta: Ekin    =      5903.534022
siesta: Enl     =       294.171792
siesta: DEna    =        -0.000010
siesta: DUscf   =         0.000000
siesta: DUext   =         0.000000
siesta: Exc     =     -3961.785226
siesta: eta*DQ  =         0.000000
siesta: Emadel  =         0.000000
siesta: Emeta   =         0.000000
siesta: Emolmec =         0.000000
siesta: Ekinion =         0.000000
siesta: Eharris =    -11173.190909
siesta: Etot    =    -11244.904251
siesta: FreeEng =    -11244.904251

siesta: iscf   Eharris(eV)      E_KS(eV)   FreeEng(eV)   dDmax  Ef(eV)
siesta:    1   -11173.1909   -11244.9043   -11244.9043  1.8846 -8.0666
timer: Routine,Calls,Time,% = IterSCF        1    8396.056  99.87
elaps: Routine,Calls,Wall,% = IterSCF        1    1051.599  99.90
siesta:    2   -11179.6555   -11128.2026   -11128.2316  0.4742 -4.1773
siesta:    3   -11152.7811   -11161.1730   -11161.2012  0.4445 -5.4917
siesta:    4   -11150.5939   -11156.6589   -11156.6903  0.3658 -5.4785
siesta:    5   -11149.4275   -11147.8768   -11147.9070  0.1673 -5.6946
siesta:    6   -11148.9168   -11145.5890   -11145.6212  0.1180 -5.7658
siesta:    7   -11147.1550   -11142.6512   -11142.6871  0.0540 -5.8476
siesta:    8   -11146.3652   -11142.4008   -11142.4264  0.0341 -5.8678
siesta:    9   -11145.6771   -11142.5841   -11142.6108  0.0235 -5.9044
siesta:   10   -11145.6134   -11142.8667   -11142.8929  0.0202 -5.9132
siesta:   11   -11145.5739   -11143.4083   -11143.4339  0.0154 -5.9188
siesta:   12   -11145.5689   -11143.9201   -11143.9454  0.0102 -5.9153
siesta:   13   -11145.5688   -11144.2256   -11144.2511  0.0075 -5.9140
siesta:   14   -11145.5683   -11145.1921   -11145.2178  0.0031 -5.9098
siesta:   15   -11145.5676   -11145.4877   -11145.5133  0.0013 -5.9089
siesta:   16   -11145.5672   -11145.5076   -11145.5330  0.0009 -5.9097
siesta:   17   -11145.5671   -11145.6074   -11145.6328  0.0008 -5.9096
siesta:   18   -11145.5670   -11145.5828   -11145.6083  0.0004 -5.9099
siesta:   19   -11145.5670   -11145.5916   -11145.6170  0.0002 -5.9100
siesta:   20   -11145.5670   -11145.5828   -11145.6082  0.0001 -5.9098

siesta: E_KS(eV) =           -11145.5770

siesta: E_KS - E_eggbox =    -11145.5770

siesta: Atomic forces (eV/Ang):
----------------------------------------
   Tot    0.190621   -0.149103    0.000000
----------------------------------------
   Max    5.111757
   Res    1.370514    sqrt( Sum f_i^2 / 3N )
----------------------------------------
   Max    5.111757    constrained

Stress-tensor-Voigt (kbar):     -119.51     -117.99       -0.25       -0.81        0.00        0.00
(Free)E + p*V (eV/cell)   -11051.9570
Target enthalpy (eV/cell)   -11145.6024

siesta: Stress tensor (static) (eV/Ang**3):
        -0.074590   -0.000505    0.000000
        -0.000505   -0.073643    0.000000
         0.000000    0.000000   -0.000157

siesta: Pressure (static):         79.24990683  kBar

siesta: Stress tensor (total) (eV/Ang**3):
        -0.074590   -0.000505    0.000000
        -0.000505   -0.073643    0.000000
         0.000000    0.000000   -0.000157

siesta: Pressure (total):         79.24990683  kBar

siesta: Temp_ion =       0.000 K

* Maximum dynamic memory allocated =   222 MB

siesta: Program's energy decomposition (eV):
siesta: Ebs     =     -3689.050458
siesta: Eions   =     17250.500670
siesta: Ena     =      3769.675842
siesta: Ekin    =      7407.861813
siesta: Enl     =      -692.054310
siesta: DEna    =      -342.797390
siesta: DUscf   =        36.365108
siesta: DUext   =         0.000000
siesta: Exc     =     -4074.127372
siesta: eta*DQ  =         0.000000
siesta: Emadel  =         0.000000
siesta: Emeta   =         0.000000
siesta: Emolmec =         0.000000
siesta: Ekinion =         0.000000
siesta: Eharris =    -11145.567035
siesta: Etot    =    -11145.576979
siesta: FreeEng =    -11145.602424

siesta: Final energy (eV):
siesta:  Band Struct. =   -3689.050458
siesta:       Kinetic =    7407.861813
siesta:       Hartree =   21697.397207
siesta:    Ext. field =       0.000000
siesta:   Exch.-corr. =   -4074.127372
siesta:  Ion-electron =  -50131.887424
siesta:       Ion-ion =   13955.178797
siesta:       Ekinion =       0.000000
siesta:         Total =  -11145.576979

siesta: Atomic forces (eV/Ang):
siesta:      1   -3.218696   -1.841546    0.000000
siesta:      2    1.297553   -0.742172    0.000000
siesta:      3   -0.018430   -3.293505    0.000000
siesta:      4    0.029456    1.021503    0.000000
siesta:      5   -2.634476    1.672814    0.000000
siesta:      6   -1.024751   -0.579209    0.000000
siesta:      7    0.057031    0.084965    0.000000
siesta:      8   -0.315440    1.537840    0.000000
siesta:      9   -2.838556    1.578933    0.000000
siesta:     10   -0.331728    0.097294    0.000000
siesta:     11    0.523745   -0.229999    0.000000
siesta:     12   -0.351881   -0.148719    0.000000
siesta:     13   -0.467025    0.321335    0.000000
siesta:     14    3.165076   -2.194671    0.000000
siesta:     15    0.352359   -0.706273    0.000000
siesta:     16    0.088341    0.106149    0.000000
siesta:     17   -0.341351   -0.210692    0.000000
siesta:     18   -0.128819    0.145270    0.000000
siesta:     19   -3.419028    2.223026    0.000000
siesta:     20    3.349375    2.176544    0.000000
siesta:     21    0.038999    0.193925    0.000000
siesta:     22    0.485486   -0.968224    0.000000
siesta:     23    0.178636    3.372390    0.000000
siesta:     24   -0.506683   -3.090041    0.000000
siesta:     25    0.114807   -0.104320    0.000000
siesta:     26   -0.241862   -0.764543    0.000000
siesta:     27    0.135628   -0.257390    0.000000
siesta:     28    0.136012   -4.074769    0.000000
siesta:     29   -4.569273   -2.677189    0.000000
siesta:     30    4.404824   -2.716010    0.000000
siesta:     31    0.139384   -4.140002    0.000000
siesta:     32    2.804425    1.526661    0.000000
siesta:     33    0.127444    1.622310    0.000000
siesta:     34   -3.045188    1.482171    0.000000
siesta:     35    3.445875    1.842270    0.000000
siesta:     36   -0.026712    5.111757    0.000000
siesta:     37   -3.396685    1.878411    0.000000
siesta:     38    1.031770   -0.464858    0.000000
siesta:     39    0.023806   -3.188573    0.000000
siesta:     40   -1.067802   -0.487381    0.000000
siesta:     41    0.059153    0.125250    0.000000
siesta:     42    0.822085   -0.352079    0.000000
siesta:     43   -0.009673   -3.121004    0.000000
siesta:     44    2.888458    1.542661    0.000000
siesta:     45   -0.244830    0.959459    0.000000
siesta:     46   -2.824701    2.118368    0.000000
siesta:     47    0.336361   -0.326343    0.000000
siesta:     48   -0.459513    0.764473    0.000000
siesta:     49   -0.669820   -0.814567    0.000000
siesta:     50    0.595442    0.800360    0.000000
siesta:     51    3.055015    1.639030    0.000000
siesta:     52   -0.774095   -0.356342    0.000000
siesta:     53   -0.073734    0.016102    0.000000
siesta:     54    2.987220    1.743681    0.000000
siesta:     55    1.003341   -0.551279    0.000000
siesta:     56   -0.045280   -3.134059    0.000000
siesta:     57    0.062065    1.051876    0.000000
siesta:     58   -2.916781    1.559843    0.000000
siesta:     59    0.558889   -0.522573    0.000000
siesta:     60   -0.073945    0.416060    0.000000
siesta:     61    2.644213    1.661399    0.000000
siesta:     62   -1.269566   -0.798756    0.000000
siesta:     63    0.521964    0.324293    0.000000
siesta:     64   -0.245491   -0.048715    0.000000
siesta:     65    0.002968   -0.237996    0.000000
siesta:     66    0.026682    0.085099    0.000000
siesta:     67    0.179535    0.008245    0.000000
siesta:     68   -0.152866    0.036343    0.000000
siesta:     69   -0.048383    0.052490    0.000000
siesta:     70    0.171669    0.066427    0.000000
siesta:     71    0.042506   -0.007093    0.000000
siesta:     72    0.056086    0.034764    0.000000
siesta: ----------------------------------------
siesta:    Tot    0.190621   -0.149103    0.000000

siesta: Stress tensor (static) (eV/Ang**3):
siesta:    -0.074590   -0.000505    0.000000
siesta:    -0.000505   -0.073643    0.000000
siesta:     0.000000    0.000000   -0.000157

siesta: Cell volume =       1893.226895 Ang**3

siesta: Pressure (static):
siesta:                Solid            Molecule  Units
siesta:           0.00053872          0.00048619  Ry/Bohr**3
siesta:           0.04946337          0.04463998  eV/Ang**3
siesta:          79.24990683         71.52190000  kBar
(Free)E+ p_basis*V_orbitals  =      -11112.021225
(Free)Eharris+ p_basis*V_orbitals  =      -11112.005476

siesta: Electric dipole (a.u.)  =    0.000000    0.000000    0.000000
siesta: Electric dipole (Debye) =    0.000000    0.000000    0.000000

* Maximum dynamic memory allocated : Node    0 =   221 MB
* Maximum dynamic memory allocated : Node    1 =    80 MB
* Maximum dynamic memory allocated : Node    2 =    84 MB
* Maximum dynamic memory allocated : Node    3 =   211 MB
* Maximum dynamic memory allocated : Node    4 =   222 MB
* Maximum dynamic memory allocated : Node    5 =    80 MB
* Maximum dynamic memory allocated : Node    6 =    83 MB
* Maximum dynamic memory allocated : Node    7 =   204 MB

* Maximum memory occured during matrixMtoO                    

timer: CPU execution times:
timer:  Routine       Calls   Time/call    Tot.time        %
timer:  siesta            1  166569.843  166569.843   100.00
timer:  Setup             1       3.116       3.116     0.00
timer:  bands             1       0.009       0.009     0.00
timer:  writewave         1       0.017       0.017     0.00
timer:  KSV_init          1       0.002       0.002     0.00
timer:  IterMD            1  166558.566  166558.566    99.99
timer:  hsparse           1       0.403       0.403     0.00
timer:  overlap           1       6.406       6.406     0.00
timer:  IterSCF          20    8318.205  166364.095    99.88
timer:  kinefsm           2       3.312       6.625     0.00
timer:  nlefsm            2      20.238      40.476     0.02
timer:  DHSCF            21     107.849    2264.839     1.36
timer:  DHSCF1            1       1.045       1.045     0.00
timer:  DHSCF2            1      43.487      43.487     0.03
timer:  REORD           170       0.014       2.387     0.00
timer:  POISON           22       3.715      81.736     0.05
timer:  DHSCF3           21     103.869    2181.255     1.31
timer:  rhoofd           21      20.001     420.023     0.25
timer:  cellXC           21       3.572      75.006     0.05
timer:  vmat             21      52.932    1111.575     0.67
timer:  MolMec            2       0.001       0.002     0.00
timer:  diagon           20    8208.713  164174.265    98.56
timer:  c-eigval       7040       7.340   51672.701    31.02
timer:  c-buildHS      7040       0.228    1605.097     0.96
timer:  cdiag         14080       7.555  106368.792    63.86
timer:  cdiag1        14080       0.474    6676.614     4.01
timer:  cdiag2        14080       2.010   28293.826    16.99
timer:  cdiag3        14080       4.207   59240.830    35.57
timer:  cdiag4        14080       0.281    3953.111     2.37
timer:  c-eigvec       7040       8.079   56876.114    34.15
timer:  c-buildD       7040       7.889   55539.914    33.34
timer:  DHSCF4            1      37.111      37.111     0.02
timer:  dfscf             1      34.523      34.523     0.02
timer:  overfsm           1       0.426       0.426     0.00
timer:  optical           1       7.141       7.141     0.00
  

elaps: ELAPSED times:
elaps:  Routine       Calls   Time/call    Tot.time        %
elaps:  siesta            1   20854.392   20854.392   100.00
elaps:  Setup             1       0.388       0.388     0.00
elaps:  bands             1       0.001       0.001     0.00
elaps:  writewave         1       0.002       0.002     0.00
elaps:  KSV_init          1       0.000       0.000     0.00
elaps:  IterMD            1   20852.983   20852.983    99.99
elaps:  hsparse           1       0.050       0.050     0.00
elaps:  overlap           1       0.528       0.528     0.00
elaps:  IterSCF          20    1041.450   20829.003    99.88
elaps:  kinefsm           2       0.278       0.557     0.00
elaps:  nlefsm            2       2.606       5.211     0.02
elaps:  DHSCF            21      13.667     287.005     1.38
elaps:  DHSCF1            1       0.133       0.133     0.00
elaps:  DHSCF2            1       5.442       5.442     0.03
elaps:  REORD           170       0.002       0.325     0.00
elaps:  POISON           22       0.465      10.227     0.05
elaps:  DHSCF3           21      12.993     272.852     1.31
elaps:  rhoofd           21       4.267      89.606     0.43
elaps:  cellXC           21       0.446       9.358     0.04
elaps:  vmat             21       6.620     139.013     0.67
elaps:  MolMec            2       0.000       0.000     0.00
elaps:  diagon           20    1027.770   20555.402    98.57
elaps:  c-eigval       7040       0.918    6466.065    31.01
elaps:  c-buildHS      7040       0.030     210.820     1.01
elaps:  cdiag         14080       0.926   13043.735    62.55
elaps:  cdiag1        14080       0.058     822.880     3.95
elaps:  cdiag2        14080       0.251    3540.593    16.98
elaps:  cdiag3        14080       0.527    7424.196    35.60
elaps:  cdiag4        14080       0.036     501.309     2.40
elaps:  c-eigvec       7040       0.978    6883.233    33.01
elaps:  c-buildD       7040       1.022    7194.287    34.50
elaps:  DHSCF4            1       8.313       8.313     0.04
elaps:  dfscf             1       7.815       7.815     0.04
elaps:  overfsm           1       0.052       0.052     0.00
elaps:  optical           1       0.001       0.001     0.00
  
>> End of run:  28-NOV-2015  19:07:48
