Siesta Version:                                        siesta-3.2-pl-3
Architecture  : x86_64-unknown-linux-gnu--unknown
Compiler flags: mpiifort -g -O2 -fPIC -xSSE4.1 -fp-model source -shared-intel 
PARALLEL version

* Running on    8 nodes in parallel
>> Start of run:  30-NOV-2015  21:04:10

                           ***********************       
                           *  WELCOME TO SIESTA  *       
                           ***********************       

reinit: Reading from standard input
************************** Dump of input data file ****************************
#(1) General system descriptors
SystemName            GRP_doping    # Descriptive name of the system
SystemLabel           GRP_doping    # Short name for naming files
%include STRUCT.fdf
%include KPT.fdf
%include BASIS.fdf
#%include TS.fdf # for transiesta calculation
#(4) DFT, Grid, SCF
XC.functional         GGA           # LDA or GGA (default = LDA)
XC.authors            PBE           # CA (Ceperley-Aldr) = PZ
                                    #    (Perdew-Zunger) - LDA - Default
                                    # PW92 (Perdew-Wang-92) - LDA
                                    # PBE (Perdew-Burke-Ernzerhof) - GGA
MeshCutoff            200.000000    Ry      # Default: 50.0 Ry ~ 0.444 Bohr
                                    #         100.0 Ry ~ 0.314 Bohr
MaxSCFIterations      500           # Default: 50
DM.MixingWeight       0.05          # Default: 0.25
DM.NumberPulay        10            # Default: 0
DM.PulayOnFile        F             # SystemLabel.P1, SystemLabel.P2
DM.Tolerance          1.d-4         # Default: 1.d-4
DM.UseSaveDM          .true.        # because of the bug
SCFMustConverge       .true.
NeglNonOverlapInt     F             # Default: F
#(5) Eigenvalue problem: order-N or diagonalization
SolutionMethod        Diagon        # or Transiesta
ElectronicTemperature 300.0 K       # Default: 300.0 K
#(6) Molecular dynamics and relaxations
#MD.TypeOfRun          CG            # Type of dynamics:
#MD.VariableCell       F
#MD.NumCGsteps         0           # 0 for single-point / 100 for gopt
#MD.MaxCGDispl         0.2 Bohr      # Default: 0.2 Bohr
#MD.MaxForceTol        0.02 eV/Ang   # Default: 0.04 eV/Ang
#MD.MaxStressTol       1.0 GPa       # Default: 1.0 GPa
# Geometry Constraints
#%block GeometryConstraints
#	position from 1 to 44
#%endblock GeometryConstraints
************************** End of input data file *****************************

reinit: -----------------------------------------------------------------------
reinit: System Name: GRP_doping
reinit: -----------------------------------------------------------------------
reinit: System Label: GRP_doping                                                  
reinit: -----------------------------------------------------------------------

initatom: Reading input for the pseudopotentials and atomic orbitals ----------
 Species number:            1  Label: C Atomic number:           6
 Species number:            2  Label: B Atomic number:           5
Ground state valence configuration:   2s02  2p02
Reading pseudopotential information in formatted form from C.psf

Valence configuration for pseudopotential generation:
2s( 2.00) rc: 1.54
2p( 2.00) rc: 1.54
3d( 0.00) rc: 1.54
4f( 0.00) rc: 1.54
Ground state valence configuration:   2s02  2p01
Reading pseudopotential information in formatted form from B.psf

Valence configuration for pseudopotential generation:
2s( 2.00) rc: 1.74
2p( 1.00) rc: 1.74
3d( 0.00) rc: 1.74
4f( 0.00) rc: 1.74
For C, standard SIESTA heuristics set lmxkb to 3
 (one more than the basis l, including polarization orbitals).
Use PS.lmax or PS.KBprojectors blocks to override.
For B, standard SIESTA heuristics set lmxkb to 3
 (one more than the basis l, including polarization orbitals).
Use PS.lmax or PS.KBprojectors blocks to override.

<basis_specs>
===============================================================================
C                    Z=   6    Mass=  12.010        Charge= 0.17977+309
Lmxo=1 Lmxkb= 3    BasisType=split      Semic=F
L=0  Nsemic=0  Cnfigmx=2
          n=1  nzeta=2  polorb=0
            splnorm:   0.15000    
               vcte:    0.0000    
               rinn:    0.0000    
                rcs:    0.0000      0.0000    
            lambdas:    1.0000      1.0000    
L=1  Nsemic=0  Cnfigmx=2
          n=1  nzeta=2  polorb=1
            splnorm:   0.15000    
               vcte:    0.0000    
               rinn:    0.0000    
                rcs:    0.0000      0.0000    
            lambdas:    1.0000      1.0000    
-------------------------------------------------------------------------------
L=0  Nkbl=1  erefs: 0.17977+309
L=1  Nkbl=1  erefs: 0.17977+309
L=2  Nkbl=1  erefs: 0.17977+309
L=3  Nkbl=1  erefs: 0.17977+309
===============================================================================
</basis_specs>

atom: Called for C                     (Z =   6)

read_vps: Pseudopotential generation method:
read_vps: ATM3      Troullier-Martins                       
Total valence charge:    4.00000

read_vps: Pseudopotential includes a core correction:
read_vps: Pseudo-core for xc-correction

xc_check: Exchange-correlation functional:
xc_check: GGA Perdew, Burke & Ernzerhof 1996
V l=0 = -2*Zval/r beyond r=  1.5227
V l=1 = -2*Zval/r beyond r=  1.5227
V l=2 = -2*Zval/r beyond r=  1.5227
V l=3 = -2*Zval/r beyond r=  1.5038
All V_l potentials equal beyond r=  1.5227
This should be close to max(r_c) in ps generation
All pots = -2*Zval/r beyond r=  1.5227

VLOCAL1: 99.0% of the norm of Vloc inside     18.722 Ry
VLOCAL1: 99.9% of the norm of Vloc inside     42.668 Ry
atom: Maximum radius for 4*pi*r*r*local-pseudopot. charge    1.83678
atom: Maximum radius for r*vlocal+2*Zval:    1.58088
GHOST: No ghost state for L =  0
GHOST: No ghost state for L =  1
GHOST: No ghost state for L =  2
GHOST: No ghost state for L =  3

KBgen: Kleinman-Bylander projectors: 
   l= 0   rc=  1.704034   el= -1.009801   Ekb=  5.335044   kbcos=  0.316824
   l= 1   rc=  1.704034   el= -0.388707   Ekb= -3.785862   kbcos= -0.366464
   l= 2   rc=  1.791422   el=  0.001971   Ekb= -0.970471   kbcos= -0.009212
   l= 3   rc=  1.859892   el=  0.003065   Ekb= -0.399525   kbcos= -0.001223

KBgen: Total number of  Kleinman-Bylander projectors:   16
atom: -------------------------------------------------------------------------

atom: SANKEY-TYPE ORBITALS:
atom: Selected multiple-zeta basis: split     

SPLIT: Orbitals with angular momentum L= 0

SPLIT: Basis orbitals for state 2s

SPLIT: PAO cut-off radius determined from an
SPLIT: energy shift=  0.007350 Ry

   izeta = 1
                 lambda =    1.000000
                     rc =    4.632753
                 energy =   -1.002270
                kinetic =    0.855760
    potential(screened) =   -1.858031
       potential(ionic) =   -5.417575

   izeta = 2
                 rmatch =    3.431921
              splitnorm =    0.150000
                 energy =   -0.867111
                kinetic =    1.300804
    potential(screened) =   -2.167915
       potential(ionic) =   -5.962684

SPLIT: Orbitals with angular momentum L= 1

SPLIT: Basis orbitals for state 2p

SPLIT: PAO cut-off radius determined from an
SPLIT: energy shift=  0.007350 Ry

   izeta = 1
                 lambda =    1.000000
                     rc =    5.658549
                 energy =   -0.381140
                kinetic =    2.399701
    potential(screened) =   -2.780841
       potential(ionic) =   -6.206085

   izeta = 2
                 rmatch =    3.653288
              splitnorm =    0.150000
                 energy =   -0.249149
                kinetic =    3.542762
    potential(screened) =   -3.791911
       potential(ionic) =   -7.581078

POLgen: Perturbative polarization orbital with L=  2

POLgen: Polarization orbital for state 2p

   izeta = 1
                     rc =    5.658549
                 energy =    1.109913
                kinetic =    2.304789
    potential(screened) =   -1.194876
       potential(ionic) =   -4.013592
atom: Total number of Sankey-type orbitals: 13

atm_pop: Valence configuration (for local Pseudopot. screening):
 2s( 2.00)                                                            
 2p( 2.00)                                                            
Vna: chval, zval:    4.00000   4.00000

Vna:  Cut-off radius for the neutral-atom potential:   5.658549
comcore: Pseudo-core radius Rcore=  1.791422

atom: _________________________________________________________________________

<basis_specs>
===============================================================================
B                    Z=   5    Mass=  10.810        Charge= 0.17977+309
Lmxo=1 Lmxkb= 3    BasisType=split      Semic=F
L=0  Nsemic=0  Cnfigmx=2
          n=1  nzeta=2  polorb=0
            splnorm:   0.15000    
               vcte:    0.0000    
               rinn:    0.0000    
                rcs:    0.0000      0.0000    
            lambdas:    1.0000      1.0000    
L=1  Nsemic=0  Cnfigmx=2
          n=1  nzeta=2  polorb=1
            splnorm:   0.15000    
               vcte:    0.0000    
               rinn:    0.0000    
                rcs:    0.0000      0.0000    
            lambdas:    1.0000      1.0000    
-------------------------------------------------------------------------------
L=0  Nkbl=1  erefs: 0.17977+309
L=1  Nkbl=1  erefs: 0.17977+309
L=2  Nkbl=1  erefs: 0.17977+309
L=3  Nkbl=1  erefs: 0.17977+309
===============================================================================
</basis_specs>

atom: Called for B                     (Z =   5)

read_vps: Pseudopotential generation method:
read_vps: ATM3      Troullier-Martins                       
Total valence charge:    3.00000

read_vps: Pseudopotential includes a core correction:
read_vps: Pseudo-core for xc-correction

xc_check: Exchange-correlation functional:
xc_check: GGA Perdew, Burke & Ernzerhof 1996
V l=0 = -2*Zval/r beyond r=  1.7165
V l=1 = -2*Zval/r beyond r=  1.7165
V l=2 = -2*Zval/r beyond r=  1.7165
V l=3 = -2*Zval/r beyond r=  1.6951
All V_l potentials equal beyond r=  1.7165
This should be close to max(r_c) in ps generation
All pots = -2*Zval/r beyond r=  1.7165

VLOCAL1: 99.0% of the norm of Vloc inside     14.733 Ry
VLOCAL1: 99.9% of the norm of Vloc inside     33.577 Ry
atom: Maximum radius for 4*pi*r*r*local-pseudopot. charge    2.04484
atom: Maximum radius for r*vlocal+2*Zval:    1.75994
GHOST: No ghost state for L =  0
GHOST: No ghost state for L =  1
GHOST: No ghost state for L =  2
GHOST: No ghost state for L =  3

KBgen: Kleinman-Bylander projectors: 
   l= 0   rc=  1.897051   el= -0.693730   Ekb=  4.595746   kbcos=  0.286105
   l= 1   rc=  1.920920   el= -0.265236   Ekb= -2.350715   kbcos= -0.315747
   l= 2   rc=  2.044840   el=  0.002055   Ekb= -0.690767   kbcos= -0.013822
   l= 3   rc=  2.149707   el=  0.003188   Ekb= -0.315358   kbcos= -0.002055

KBgen: Total number of  Kleinman-Bylander projectors:   16
atom: -------------------------------------------------------------------------

atom: SANKEY-TYPE ORBITALS:
atom: Selected multiple-zeta basis: split     

SPLIT: Orbitals with angular momentum L= 0

SPLIT: Basis orbitals for state 2s

SPLIT: PAO cut-off radius determined from an
SPLIT: energy shift=  0.007350 Ry

   izeta = 1
                 lambda =    1.000000
                     rc =    5.422032
                 energy =   -0.686029
                kinetic =    0.576707
    potential(screened) =   -1.262736
       potential(ionic) =   -3.271094

   izeta = 2
                 rmatch =    4.222573
              splitnorm =    0.150000
                 energy =   -0.602132
                kinetic =    0.858975
    potential(screened) =   -1.461107
       potential(ionic) =   -3.582536

SPLIT: Orbitals with angular momentum L= 1

SPLIT: Basis orbitals for state 2p

SPLIT: PAO cut-off radius determined from an
SPLIT: energy shift=  0.007350 Ry

   izeta = 1
                 lambda =    1.000000
                     rc =    6.790259
                 energy =   -0.258578
                kinetic =    1.481412
    potential(screened) =   -1.739989
       potential(ionic) =   -3.657461

   izeta = 2
                 rmatch =    4.608740
              splitnorm =    0.150000
                 energy =   -0.173757
                kinetic =    2.186690
    potential(screened) =   -2.360447
       potential(ionic) =   -4.464260

POLgen: Perturbative polarization orbital with L=  2

POLgen: Polarization orbital for state 2p

   izeta = 1
                     rc =    6.790259
                 energy =    0.684082
                kinetic =    1.471481
    potential(screened) =   -0.787399
       potential(ionic) =   -2.406985
atom: Total number of Sankey-type orbitals: 13

atm_pop: Valence configuration (for local Pseudopot. screening):
 2s( 2.00)                                                            
 2p( 1.00)                                                            
Vna: chval, zval:    3.00000   3.00000

Vna:  Cut-off radius for the neutral-atom potential:   6.790259
comcore: Pseudo-core radius Rcore=  2.122997

atom: _________________________________________________________________________

prinput: Basis input ----------------------------------------------------------

PAO.BasisType split     

%block ChemicalSpeciesLabel
    1    6 C                       # Species index, atomic number, species label
    2    5 B                       # Species index, atomic number, species label
%endblock ChemicalSpeciesLabel

%block PAO.Basis                 # Define Basis set
C                     2                    # Species label, number of l-shells
 n=2   0   2                         # n, l, Nzeta 
   4.633      3.432   
   1.000      1.000   
 n=2   1   2 P   1                   # n, l, Nzeta, Polarization, NzetaPol
   5.659      3.653   
   1.000      1.000   
B                     2                    # Species label, number of l-shells
 n=2   0   2                         # n, l, Nzeta 
   5.422      4.223   
   1.000      1.000   
 n=2   1   2 P   1                   # n, l, Nzeta, Polarization, NzetaPol
   6.790      4.609   
   1.000      1.000   
%endblock PAO.Basis

prinput: ----------------------------------------------------------------------

coor:   Atomic-coordinates input format  =     Cartesian coordinates
coor:                                          (in Angstroms)

siesta: Atomic coordinates (Bohr) and species
siesta:      2.23554   1.32097   0.00000  1        1
siesta:      4.56367   2.66461   0.00000  1        2
siesta:     32.50328  21.48508   0.00000  1        3
siesta:     34.83141  22.82873   0.00000  1        4
siesta:     34.83116  17.45226   0.00000  1        5
siesta:     32.50291  13.41944   0.00000  1        6
siesta:     34.83104  14.76308   0.00000  1        7
siesta:     30.17465   9.38661   0.00000  1        8
siesta:     32.50278  10.73026   0.00000  1        9
siesta:     27.84639   5.35379   0.00000  1       10
siesta:     30.17453   6.69743   0.00000  1       11
siesta:     27.84714  21.48508   0.00000  1       12
siesta:     30.17527  22.82873   0.00000  1       13
siesta:      6.89168   1.32097   0.00000  1       14
siesta:      9.21981   2.66461   0.00000  1       15
siesta:     13.87595   2.66461   0.00000  1       16
siesta:     16.20396   1.32097   0.00000  1       17
siesta:     18.53210   2.66461   0.00000  1       18
siesta:     23.19013   2.66461   0.00000  1       19
siesta:     25.51813   1.32097   0.00000  1       20
siesta:     27.84627   2.66461   0.00000  1       21
siesta:      6.89193   6.69743   0.00000  1       22
siesta:      9.21994   5.35379   0.00000  1       23
siesta:     11.54807   6.69743   0.00000  1       24
siesta:     13.87608   5.35379   0.00000  1       25
siesta:     16.20421   6.69743   0.00000  1       26
siesta:     18.53411   5.35379   0.00000  1       27
siesta:     20.86224   6.69743   0.00000  1       28
siesta:     23.19025   5.35379   0.00000  1       29
siesta:     25.51838   6.69743   0.00000  1       30
siesta:      9.22019  10.73026   0.00000  1       31
siesta:     11.54820   9.38661   0.00000  1       32
siesta:     13.87633  10.73026   0.00000  1       33
siesta:     18.53247  10.73026   0.00000  1       34
siesta:     20.86237   9.38661   0.00000  1       35
siesta:     23.19050  10.73026   0.00000  1       36
siesta:      9.22031  13.41944   0.00000  1       37
siesta:     11.54845  14.76308   0.00000  1       38
siesta:     13.87645  13.41944   0.00000  1       39
siesta:     16.20459  14.76308   0.00000  1       40
siesta:     18.53448  13.41944   0.00000  1       41
siesta:     20.86262  14.76308   0.00000  1       42
siesta:     13.87670  18.79590   0.00000  1       43
siesta:     16.20471  17.45226   0.00000  1       44
siesta:     18.53284  18.79590   0.00000  1       45
siesta:     13.87683  21.48508   0.00000  1       46
siesta:     16.20496  22.82873   0.00000  1       47
siesta:     18.53486  21.48508   0.00000  1       48
siesta:     20.86299  22.82873   0.00000  1       49
siesta:     27.84664  10.73026   0.00000  1       50
siesta:     23.19063  13.41944   0.00000  1       51
siesta:     25.51876  14.76308   0.00000  1       52
siesta:     23.19088  18.79590   0.00000  1       53
siesta:     27.84677  13.41944   0.00000  1       54
siesta:     30.17490  14.76308   0.00000  1       55
siesta:     25.51888  17.45226   0.00000  1       56
siesta:     27.84702  18.79590   0.00000  1       57
siesta:     23.19100  21.48508   0.00000  1       58
siesta:     25.51913  22.82873   0.00000  1       59
siesta:     30.17503  17.45226   0.00000  1       60
siesta:     32.50316  18.79590   0.00000  1       61
siesta:     37.16131  21.48508   0.00000  1       62
siesta:     39.48945  22.82873   0.00000  1       63
siesta:     37.15930  18.79590   0.00000  2       64
siesta:     11.54782   1.32097   0.00000  2       65
siesta:     20.86199   1.32097   0.00000  2       66
siesta:      4.56380   5.35379   0.00000  2       67
siesta:      6.89205   9.38661   0.00000  2       68
siesta:     16.20434   9.38661   0.00000  2       69
siesta:     11.54857  17.45226   0.00000  2       70
siesta:     25.51851   9.38661   0.00000  2       71
siesta:     20.86274  17.45226   0.00000  2       72

siesta: System type = slab      

initatomlists: Number of atoms, orbitals, and projectors:     72   936  1152

siesta: ******************** Simulation parameters ****************************
siesta:
siesta: The following are some of the parameters of the simulation.
siesta: A complete list of the parameters used, including default values,
siesta: can be found in file out.fdf
siesta:
redata: Non-Collinear-spin run           =     F
redata: SpinPolarized (Up/Down) run      =     F
redata: Number of spin components        =     1
redata: Long output                      =     F
redata: Number of Atomic Species         =        2
redata: Charge density info will appear in .RHO file
redata: Write Mulliken Pop.              =     NO
redata: Mesh Cutoff                      =   200.0000  Ry
redata: Net charge of the system         =     0.0000 |e|
redata: Max. number of SCF Iter          =      500
redata: SCF convergence failure will abort job
redata: Performing Pulay mixing using    =    10 iterations
redata: Mix DM in first SCF step ?       =     F
redata: Write Pulay info on disk?        =     F
redata: Discard 1st Pulay DM after  kick =     F
redata: New DM Mixing Weight             =     0.0500
redata: New DM Occupancy tolerance       = 0.000000000001
redata: No kicks to SCF
redata: DM Mixing Weight for Kicks       =     0.5000
redata: DM Tolerance for SCF             =     0.000100
redata: Require Energy convergence for SCF =     F
redata: DM Energy tolerance for SCF      =     0.000100 eV
redata: Require Harris convergence for SCF =     F
redata: DM Harris energy tolerance for SCF =     0.000100 eV
redata: Using Saved Data (generic)   =     F
redata: Use continuation files for DM    =     T
redata: Neglect nonoverlap interactions  =     F
redata: Method of Calculation            =     Diagonalization
redata: Divide and Conquer               =     T
redata: Electronic Temperature           =     0.0019  Ry
redata: Fix the spin of the system       =     F
redata: Dynamics option                  =     Verlet MD run
redata: Initial MD time step             =        1
redata:   Final MD time step             =        1
redata: Length of MD time step           =     1.0000  fs
redata: Initial Temperature of MD run    =     0.0000  K
redata: Perform a MD quench              =     F
redata: ***********************************************************************
Total number of electrons:   279.000000
Total ionic charge:   279.000000

* ProcessorY, Blocksize:    2  24

k-point displ. along   1 input, could be:     0.00    0.50
k-point displ. along   2 input, could be:     0.00    0.50
 Kpoints in:          364 . Kpoints trimmed:          352

siesta: k-grid: Number of k-points =   352
siesta: k-grid: Cutoff (effective) =     5.000 Ang
siesta: k-grid: Supercell and displacements
siesta: k-grid:   26   0   0      0.000
siesta: k-grid:    0  26   0      0.000
siesta: k-grid:    0   0   1      0.000
Naive supercell factors:     2    2    2

superc: Internal auxiliary supercell:     2 x     2 x     2  =       8
superc: Number of atoms, orbitals, and projectors:    576   7488   9216

* Maximum dynamic memory allocated =     6 MB

siesta:                 ==============================
                            Begin MD step =      1
                        ==============================

superc: Internal auxiliary supercell:     2 x     2 x     2  =       8
superc: Number of atoms, orbitals, and projectors:    576   7488   9216

outcell: Unit cell vectors (Ang):
       14.785000    0.000000    0.000000
        7.393000   12.805052    0.000000
        0.000000    0.000000   10.000000

outcell: Cell vector modules (Ang)   :   14.785000   14.786000   10.000000
outcell: Cell angles (23,13,12) (deg):     90.0000     90.0000     60.0000
outcell: Cell volume (Ang**3)        :   1893.2269
New_DM. Step:     1
Initializing Density Matrix...

InitMesh: MESH =   120 x   120 x    90 =     1296000
InitMesh: Mesh cutoff (required, used) =   200.000   223.865 Ry

* Maximum dynamic memory allocated =   207 MB

stepf: Fermi-Dirac step function

siesta: Program's energy decomposition (eV):
siesta: Ebs     =     -4460.580637
siesta: Eions   =     17250.500670
siesta: Ena     =      3769.795895
siesta: Ekin    =      5903.534022
siesta: Enl     =       294.330215
siesta: DEna    =        -0.000010
siesta: DUscf   =         0.000000
siesta: DUext   =         0.000000
siesta: Exc     =     -3961.813322
siesta: eta*DQ  =         0.000000
siesta: Emadel  =         0.000000
siesta: Emeta   =         0.000000
siesta: Emolmec =         0.000000
siesta: Ekinion =         0.000000
siesta: Eharris =    -11172.622136
siesta: Etot    =    -11244.653870
siesta: FreeEng =    -11244.653870

siesta: iscf   Eharris(eV)      E_KS(eV)   FreeEng(eV)   dDmax  Ef(eV)
siesta:    1   -11172.6221   -11244.6539   -11244.6539  1.9093 -8.1188
timer: Routine,Calls,Time,% = IterSCF        1    6725.303  99.84
elaps: Routine,Calls,Wall,% = IterSCF        1     841.989  99.88
siesta:    2   -11200.5484   -11123.0239   -11123.0554  0.5433 -3.4662
siesta:    3   -11153.9681   -11162.8419   -11162.8746  0.5189 -5.3312
siesta:    4   -11150.8568   -11160.8326   -11160.8570  0.4786 -5.3496
siesta:    5   -11147.0573   -11152.4200   -11152.4454  0.2995 -5.7462
siesta:    6   -11146.6362   -11146.1150   -11146.1433  0.1949 -5.7121
siesta:    7   -11146.2949   -11141.9624   -11141.9944  0.1118 -5.8335
siesta:    8   -11145.5242   -11141.5395   -11141.5609  0.1015 -5.8622
siesta:    9   -11144.2705   -11141.0063   -11141.0293  0.0662 -5.9171
siesta:   10   -11144.1265   -11141.1965   -11141.2269  0.0591 -5.9302
siesta:   11   -11144.0062   -11141.7312   -11141.7601  0.0460 -5.9484
siesta:   12   -11143.9755   -11142.3762   -11142.4047  0.0317 -5.9501
siesta:   13   -11143.9806   -11142.8607   -11142.8927  0.0219 -5.9381
siesta:   14   -11143.9692   -11143.5922   -11143.6255  0.0109 -5.9229
siesta:   15   -11143.9566   -11143.8255   -11143.8569  0.0066 -5.9272
siesta:   16   -11143.9544   -11143.8847   -11143.9165  0.0059 -5.9251
siesta:   17   -11143.9518   -11143.9492   -11143.9804  0.0036 -5.9218
siesta:   18   -11143.9504   -11143.9754   -11144.0062  0.0021 -5.9219
siesta:   19   -11143.9503   -11143.9873   -11144.0187  0.0014 -5.9231
siesta:   20   -11143.9501   -11143.9817   -11144.0129  0.0006 -5.9238
siesta:   21   -11143.9501   -11143.9946   -11144.0256  0.0004 -5.9235
siesta:   22   -11143.9501   -11143.9932   -11144.0242  0.0004 -5.9234
siesta:   23   -11143.9501   -11143.9777   -11144.0086  0.0003 -5.9235
siesta:   24   -11143.9501   -11143.9756   -11144.0066  0.0002 -5.9235
siesta:   25   -11143.9501   -11143.9627   -11143.9937  0.0001 -5.9236
siesta:   26   -11143.9501   -11143.9603   -11143.9912  0.0001 -5.9235

siesta: E_KS(eV) =           -11143.9546

siesta: E_KS - E_eggbox =    -11143.9546

siesta: Atomic forces (eV/Ang):
----------------------------------------
   Tot    0.200922   -0.135792    0.000000
----------------------------------------
   Max    3.930972
   Res    1.247668    sqrt( Sum f_i^2 / 3N )
----------------------------------------
   Max    3.930972    constrained

Stress-tensor-Voigt (kbar):     -119.55     -118.39       -0.25        0.34        0.00        0.00
(Free)E + p*V (eV/cell)   -11050.1635
Target enthalpy (eV/cell)   -11143.9855

siesta: Stress tensor (static) (eV/Ang**3):
        -0.074618    0.000213    0.000000
         0.000213   -0.073895    0.000000
         0.000000    0.000000   -0.000157

siesta: Pressure (static):         79.39937118  kBar

siesta: Stress tensor (total) (eV/Ang**3):
        -0.074618    0.000213    0.000000
         0.000213   -0.073895    0.000000
         0.000000    0.000000   -0.000157

siesta: Pressure (total):         79.39937118  kBar

siesta: Temp_ion =       0.000 K

* Maximum dynamic memory allocated =   223 MB

siesta: Program's energy decomposition (eV):
siesta: Ebs     =     -3690.922856
siesta: Eions   =     17250.500670
siesta: Ena     =      3769.795895
siesta: Ekin    =      7406.562351
siesta: Enl     =      -691.247273
siesta: DEna    =      -341.565416
siesta: DUscf   =        36.582407
siesta: DUext   =         0.000000
siesta: Exc     =     -4073.581894
siesta: eta*DQ  =         0.000000
siesta: Emadel  =         0.000000
siesta: Emeta   =         0.000000
siesta: Emolmec =         0.000000
siesta: Ekinion =         0.000000
siesta: Eharris =    -11143.950068
siesta: Etot    =    -11143.954600
siesta: FreeEng =    -11143.985532

siesta: Final energy (eV):
siesta:  Band Struct. =   -3690.922856
siesta:       Kinetic =    7406.562351
siesta:       Hartree =   21697.653327
siesta:    Ext. field =       0.000000
siesta:   Exch.-corr. =   -4073.581894
siesta:  Ion-electron =  -50133.685134
siesta:       Ion-ion =   13959.096749
siesta:       Ekinion =       0.000000
siesta:         Total =  -11143.954600

siesta: Atomic forces (eV/Ang):
siesta:      1    0.661422   -0.381454    0.000000
siesta:      2   -0.496510   -3.930972    0.000000
siesta:      3   -0.244257   -0.214101    0.000000
siesta:      4    0.841926   -2.913960    0.000000
siesta:      5   -3.443479   -1.879048    0.000000
siesta:      6   -0.431744   -0.559756    0.000000
siesta:      7   -1.065483    1.065341    0.000000
siesta:      8   -0.701882    1.235347    0.000000
siesta:      9   -3.184263    2.035362    0.000000
siesta:     10   -0.287862    0.459434    0.000000
siesta:     11   -3.120933    1.207586    0.000000
siesta:     12   -0.373491   -0.367890    0.000000
siesta:     13    0.317153   -0.667608    0.000000
siesta:     14   -0.564487   -0.068629    0.000000
siesta:     15   -2.549082    1.515511    0.000000
siesta:     16    2.851370    1.487654    0.000000
siesta:     17    0.021121    1.519029    0.000000
siesta:     18   -2.742694    1.518464    0.000000
siesta:     19    2.809930    1.734718    0.000000
siesta:     20    0.446914    0.598645    0.000000
siesta:     21    0.042269   -0.357217    0.000000
siesta:     22    3.144981   -1.794128    0.000000
siesta:     23   -0.934607    0.054590    0.000000
siesta:     24    0.177689   -0.066480    0.000000
siesta:     25    1.134090   -0.337237    0.000000
siesta:     26   -0.030576   -3.199121    0.000000
siesta:     27   -0.944984   -0.386249    0.000000
siesta:     28   -0.161062    0.001751    0.000000
siesta:     29    0.850745   -0.606449    0.000000
siesta:     30   -0.114411   -3.444227    0.000000
siesta:     31    2.672988    2.118294    0.000000
siesta:     32    0.236262    1.062523    0.000000
siesta:     33   -2.726766    1.474809    0.000000
siesta:     34    2.786539    1.451338    0.000000
siesta:     35   -0.273482    1.021407    0.000000
siesta:     36   -2.623260    1.699526    0.000000
siesta:     37    1.747575   -1.146435    0.000000
siesta:     38    0.314860   -3.222930    0.000000
siesta:     39   -0.910761   -0.748272    0.000000
siesta:     40    0.150366   -0.269726    0.000000
siesta:     41    0.610811   -0.509858    0.000000
siesta:     42    0.162801   -3.109919    0.000000
siesta:     43    3.286138    1.272539    0.000000
siesta:     44    0.026827    1.363164    0.000000
siesta:     45   -2.754964    1.595986    0.000000
siesta:     46    0.753900   -0.359350    0.000000
siesta:     47   -0.180190    0.388114    0.000000
siesta:     48   -0.383322   -0.151434    0.000000
siesta:     49   -0.242039    0.249580    0.000000
siesta:     50    3.027027    1.579429    0.000000
siesta:     51   -1.219830   -0.692259    0.000000
siesta:     52    0.490944    0.271502    0.000000
siesta:     53    2.770060    1.881016    0.000000
siesta:     54    0.325613    0.073188    0.000000
siesta:     55   -0.127987    0.537741    0.000000
siesta:     56    0.205365    0.378724    0.000000
siesta:     57    0.252748   -0.269116    0.000000
siesta:     58    1.147909   -0.850386    0.000000
siesta:     59   -0.131235   -3.345736    0.000000
siesta:     60   -0.138278    0.046538    0.000000
siesta:     61   -0.454651   -0.772434    0.000000
siesta:     62   -1.076287    3.303514    0.000000
siesta:     63   -0.472528    0.482155    0.000000
siesta:     64   -3.351655    2.098291    0.000000
siesta:     65   -0.103003   -0.029877    0.000000
siesta:     66   -0.150571   -0.048282    0.000000
siesta:     67    0.391992   -0.084179    0.000000
siesta:     68    0.545908   -0.208018    0.000000
siesta:     69    0.015066   -0.001743    0.000000
siesta:     70    3.525697   -2.103020    0.000000
siesta:     71    0.130501    0.096909    0.000000
siesta:     72    0.036026    0.081994    0.000000
siesta: ----------------------------------------
siesta:    Tot    0.200922   -0.135792    0.000000

siesta: Stress tensor (static) (eV/Ang**3):
siesta:    -0.074618    0.000213    0.000000
siesta:     0.000213   -0.073895    0.000000
siesta:     0.000000    0.000000   -0.000157

siesta: Cell volume =       1893.226895 Ang**3

siesta: Pressure (static):
siesta:                Solid            Molecule  Units
siesta:           0.00053974          0.00090722  Ry/Bohr**3
siesta:           0.04955665          0.08329753  eV/Ang**3
siesta:          79.39937118        133.45879354  kBar
(Free)E+ p_basis*V_orbitals  =      -11110.404333
(Free)Eharris+ p_basis*V_orbitals  =      -11110.394086

siesta: Electric dipole (a.u.)  =    0.000000    0.000000    0.000000
siesta: Electric dipole (Debye) =    0.000000    0.000000    0.000000

* Maximum dynamic memory allocated : Node    0 =   222 MB
* Maximum dynamic memory allocated : Node    1 =    80 MB
* Maximum dynamic memory allocated : Node    2 =    84 MB
* Maximum dynamic memory allocated : Node    3 =   211 MB
* Maximum dynamic memory allocated : Node    4 =   223 MB
* Maximum dynamic memory allocated : Node    5 =    81 MB
* Maximum dynamic memory allocated : Node    6 =    83 MB
* Maximum dynamic memory allocated : Node    7 =   205 MB

* Maximum memory occured during matrixMtoO                    

timer: CPU execution times:
timer:  Routine       Calls   Time/call    Tot.time        %
timer:  siesta            1  173161.341  173161.341   100.00
timer:  Setup             1       3.072       3.072     0.00
timer:  bands             1       0.011       0.011     0.00
timer:  writewave         1       0.017       0.017     0.00
timer:  KSV_init          1       0.000       0.000     0.00
timer:  IterMD            1  173150.146  173150.146    99.99
timer:  hsparse           1       0.396       0.396     0.00
timer:  overlap           1       6.392       6.392     0.00
timer:  IterSCF          26    6652.283  172959.346    99.88
timer:  kinefsm           2       3.311       6.623     0.00
timer:  nlefsm            2      20.132      40.265     0.02
timer:  DHSCF            27     103.639    2798.249     1.62
timer:  DHSCF1            1       0.995       0.995     0.00
timer:  DHSCF2            1      41.889      41.889     0.02
timer:  REORD           218       0.010       2.192     0.00
timer:  POISON           28       2.247      62.902     0.04
timer:  DHSCF3           27     100.624    2716.838     1.57
timer:  rhoofd           27      19.865     536.362     0.31
timer:  cellXC           27       3.472      93.754     0.05
timer:  vmat             27      51.538    1391.529     0.80
timer:  MolMec            2       0.000       0.000     0.00
timer:  diagon           26    6547.249  170228.461    98.31
timer:  c-eigval       9152       6.691   61240.399    35.37
timer:  c-buildHS      9152       0.122    1120.178     0.65
timer:  cdiag         18304       6.903  126361.631    72.97
timer:  cdiag1        18304       0.426    7788.452     4.50
timer:  cdiag2        18304       1.910   34960.185    20.19
timer:  cdiag3        18304       3.956   72410.777    41.82
timer:  cdiag4        18304       0.228    4180.532     2.41
timer:  c-eigvec       9152       7.310   66904.513    38.64
timer:  c-buildD       9152       4.590   42007.214    24.26
timer:  DHSCF4            1      37.111      37.111     0.02
timer:  dfscf             1      34.574      34.574     0.02
timer:  overfsm           1       0.428       0.428     0.00
timer:  optical           1       7.109       7.109     0.00
  

elaps: ELAPSED times:
elaps:  Routine       Calls   Time/call    Tot.time        %
elaps:  siesta            1   21670.308   21670.308   100.00
elaps:  Setup             1       0.382       0.382     0.00
elaps:  bands             1       0.001       0.001     0.00
elaps:  writewave         1       0.002       0.002     0.00
elaps:  KSV_init          1       0.000       0.000     0.00
elaps:  IterMD            1   21668.910   21668.910    99.99
elaps:  hsparse           1       0.049       0.049     0.00
elaps:  overlap           1       0.528       0.528     0.00
elaps:  IterSCF          26     832.514   21645.376    99.88
elaps:  kinefsm           2       0.279       0.557     0.00
elaps:  nlefsm            2       2.589       5.178     0.02
elaps:  DHSCF            27      13.101     353.728     1.63
elaps:  DHSCF1            1       0.129       0.129     0.00
elaps:  DHSCF2            1       5.235       5.235     0.02
elaps:  REORD           218       0.001       0.287     0.00
elaps:  POISON           28       0.281       7.866     0.04
elaps:  DHSCF3           27      12.589     339.906     1.57
elaps:  rhoofd           27       4.270     115.300     0.53
elaps:  cellXC           27       0.434      11.706     0.05
elaps:  vmat             27       6.448     174.095     0.80
elaps:  MolMec            2       0.000       0.000     0.00
elaps:  diagon           26     819.383   21303.968    98.31
elaps:  c-eigval       9152       0.837    7662.217    35.36
elaps:  c-buildHS      9152       0.017     152.403     0.70
elaps:  cdiag         18304       0.851   15585.695    71.92
elaps:  cdiag1        18304       0.053     968.763     4.47
elaps:  cdiag2        18304       0.239    4374.110    20.18
elaps:  cdiag3        18304       0.496    9072.569    41.87
elaps:  cdiag4        18304       0.029     532.678     2.46
elaps:  c-eigvec       9152       0.894    8184.933    37.77
elaps:  c-buildD       9152       0.595    5446.164    25.13
elaps:  DHSCF4            1       8.264       8.264     0.04
elaps:  dfscf             1       7.776       7.776     0.04
elaps:  overfsm           1       0.053       0.053     0.00
elaps:  optical           1       0.000       0.000     0.00
  
>> End of run:   1-DEC-2015   3:05:20
