Siesta Version:                                        siesta-3.2-pl-3
Architecture  : x86_64-unknown-linux-gnu--unknown
Compiler flags: mpiifort -g -O2 -fPIC -xSSE4.1 -fp-model source -shared-intel 
PARALLEL version

* Running on    8 nodes in parallel
>> Start of run:   3-DEC-2015  20:57:18

                           ***********************       
                           *  WELCOME TO SIESTA  *       
                           ***********************       

reinit: Reading from standard input
************************** Dump of input data file ****************************
#(1) General system descriptors
SystemName            GRP_doping    # Descriptive name of the system
SystemLabel           GRP_doping    # Short name for naming files
%include STRUCT.fdf
%include KPT.fdf
%include BASIS.fdf
#%include TS.fdf # for transiesta calculation
#(4) DFT, Grid, SCF
XC.functional         GGA           # LDA or GGA (default = LDA)
XC.authors            PBE           # CA (Ceperley-Aldr) = PZ
                                    #    (Perdew-Zunger) - LDA - Default
                                    # PW92 (Perdew-Wang-92) - LDA
                                    # PBE (Perdew-Burke-Ernzerhof) - GGA
MeshCutoff            200.000000    Ry      # Default: 50.0 Ry ~ 0.444 Bohr
                                    #         100.0 Ry ~ 0.314 Bohr
MaxSCFIterations      500           # Default: 50
DM.MixingWeight       0.05          # Default: 0.25
DM.NumberPulay        10            # Default: 0
DM.PulayOnFile        F             # SystemLabel.P1, SystemLabel.P2
DM.Tolerance          1.d-4         # Default: 1.d-4
DM.UseSaveDM          .true.        # because of the bug
SCFMustConverge       .true.
NeglNonOverlapInt     F             # Default: F
#(5) Eigenvalue problem: order-N or diagonalization
SolutionMethod        Diagon        # or Transiesta
ElectronicTemperature 300.0 K       # Default: 300.0 K
#(6) Molecular dynamics and relaxations
#MD.TypeOfRun          CG            # Type of dynamics:
#MD.VariableCell       F
#MD.NumCGsteps         0           # 0 for single-point / 100 for gopt
#MD.MaxCGDispl         0.2 Bohr      # Default: 0.2 Bohr
#MD.MaxForceTol        0.02 eV/Ang   # Default: 0.04 eV/Ang
#MD.MaxStressTol       1.0 GPa       # Default: 1.0 GPa
# Geometry Constraints
#%block GeometryConstraints
#	position from 1 to 44
#%endblock GeometryConstraints
************************** End of input data file *****************************

reinit: -----------------------------------------------------------------------
reinit: System Name: GRP_doping
reinit: -----------------------------------------------------------------------
reinit: System Label: GRP_doping                                                  
reinit: -----------------------------------------------------------------------

initatom: Reading input for the pseudopotentials and atomic orbitals ----------
 Species number:            1  Label: C Atomic number:           6
 Species number:            2  Label: B Atomic number:           5
Ground state valence configuration:   2s02  2p02
Reading pseudopotential information in formatted form from C.psf

Valence configuration for pseudopotential generation:
2s( 2.00) rc: 1.54
2p( 2.00) rc: 1.54
3d( 0.00) rc: 1.54
4f( 0.00) rc: 1.54
Ground state valence configuration:   2s02  2p01
Reading pseudopotential information in formatted form from B.psf

Valence configuration for pseudopotential generation:
2s( 2.00) rc: 1.74
2p( 1.00) rc: 1.74
3d( 0.00) rc: 1.74
4f( 0.00) rc: 1.74
For C, standard SIESTA heuristics set lmxkb to 3
 (one more than the basis l, including polarization orbitals).
Use PS.lmax or PS.KBprojectors blocks to override.
For B, standard SIESTA heuristics set lmxkb to 3
 (one more than the basis l, including polarization orbitals).
Use PS.lmax or PS.KBprojectors blocks to override.

<basis_specs>
===============================================================================
C                    Z=   6    Mass=  12.010        Charge= 0.17977+309
Lmxo=1 Lmxkb= 3    BasisType=split      Semic=F
L=0  Nsemic=0  Cnfigmx=2
          n=1  nzeta=2  polorb=0
            splnorm:   0.15000    
               vcte:    0.0000    
               rinn:    0.0000    
                rcs:    0.0000      0.0000    
            lambdas:    1.0000      1.0000    
L=1  Nsemic=0  Cnfigmx=2
          n=1  nzeta=2  polorb=1
            splnorm:   0.15000    
               vcte:    0.0000    
               rinn:    0.0000    
                rcs:    0.0000      0.0000    
            lambdas:    1.0000      1.0000    
-------------------------------------------------------------------------------
L=0  Nkbl=1  erefs: 0.17977+309
L=1  Nkbl=1  erefs: 0.17977+309
L=2  Nkbl=1  erefs: 0.17977+309
L=3  Nkbl=1  erefs: 0.17977+309
===============================================================================
</basis_specs>

atom: Called for C                     (Z =   6)

read_vps: Pseudopotential generation method:
read_vps: ATM3      Troullier-Martins                       
Total valence charge:    4.00000

read_vps: Pseudopotential includes a core correction:
read_vps: Pseudo-core for xc-correction

xc_check: Exchange-correlation functional:
xc_check: GGA Perdew, Burke & Ernzerhof 1996
V l=0 = -2*Zval/r beyond r=  1.5227
V l=1 = -2*Zval/r beyond r=  1.5227
V l=2 = -2*Zval/r beyond r=  1.5227
V l=3 = -2*Zval/r beyond r=  1.5038
All V_l potentials equal beyond r=  1.5227
This should be close to max(r_c) in ps generation
All pots = -2*Zval/r beyond r=  1.5227

VLOCAL1: 99.0% of the norm of Vloc inside     18.722 Ry
VLOCAL1: 99.9% of the norm of Vloc inside     42.668 Ry
atom: Maximum radius for 4*pi*r*r*local-pseudopot. charge    1.83678
atom: Maximum radius for r*vlocal+2*Zval:    1.58088
GHOST: No ghost state for L =  0
GHOST: No ghost state for L =  1
GHOST: No ghost state for L =  2
GHOST: No ghost state for L =  3

KBgen: Kleinman-Bylander projectors: 
   l= 0   rc=  1.704034   el= -1.009801   Ekb=  5.335044   kbcos=  0.316824
   l= 1   rc=  1.704034   el= -0.388707   Ekb= -3.785862   kbcos= -0.366464
   l= 2   rc=  1.791422   el=  0.001971   Ekb= -0.970471   kbcos= -0.009212
   l= 3   rc=  1.859892   el=  0.003065   Ekb= -0.399525   kbcos= -0.001223

KBgen: Total number of  Kleinman-Bylander projectors:   16
atom: -------------------------------------------------------------------------

atom: SANKEY-TYPE ORBITALS:
atom: Selected multiple-zeta basis: split     

SPLIT: Orbitals with angular momentum L= 0

SPLIT: Basis orbitals for state 2s

SPLIT: PAO cut-off radius determined from an
SPLIT: energy shift=  0.007350 Ry

   izeta = 1
                 lambda =    1.000000
                     rc =    4.632753
                 energy =   -1.002270
                kinetic =    0.855760
    potential(screened) =   -1.858031
       potential(ionic) =   -5.417575

   izeta = 2
                 rmatch =    3.431921
              splitnorm =    0.150000
                 energy =   -0.867111
                kinetic =    1.300804
    potential(screened) =   -2.167915
       potential(ionic) =   -5.962684

SPLIT: Orbitals with angular momentum L= 1

SPLIT: Basis orbitals for state 2p

SPLIT: PAO cut-off radius determined from an
SPLIT: energy shift=  0.007350 Ry

   izeta = 1
                 lambda =    1.000000
                     rc =    5.658549
                 energy =   -0.381140
                kinetic =    2.399701
    potential(screened) =   -2.780841
       potential(ionic) =   -6.206085

   izeta = 2
                 rmatch =    3.653288
              splitnorm =    0.150000
                 energy =   -0.249149
                kinetic =    3.542762
    potential(screened) =   -3.791911
       potential(ionic) =   -7.581078

POLgen: Perturbative polarization orbital with L=  2

POLgen: Polarization orbital for state 2p

   izeta = 1
                     rc =    5.658549
                 energy =    1.109913
                kinetic =    2.304789
    potential(screened) =   -1.194876
       potential(ionic) =   -4.013592
atom: Total number of Sankey-type orbitals: 13

atm_pop: Valence configuration (for local Pseudopot. screening):
 2s( 2.00)                                                            
 2p( 2.00)                                                            
Vna: chval, zval:    4.00000   4.00000

Vna:  Cut-off radius for the neutral-atom potential:   5.658549
comcore: Pseudo-core radius Rcore=  1.791422

atom: _________________________________________________________________________

<basis_specs>
===============================================================================
B                    Z=   5    Mass=  10.810        Charge= 0.17977+309
Lmxo=1 Lmxkb= 3    BasisType=split      Semic=F
L=0  Nsemic=0  Cnfigmx=2
          n=1  nzeta=2  polorb=0
            splnorm:   0.15000    
               vcte:    0.0000    
               rinn:    0.0000    
                rcs:    0.0000      0.0000    
            lambdas:    1.0000      1.0000    
L=1  Nsemic=0  Cnfigmx=2
          n=1  nzeta=2  polorb=1
            splnorm:   0.15000    
               vcte:    0.0000    
               rinn:    0.0000    
                rcs:    0.0000      0.0000    
            lambdas:    1.0000      1.0000    
-------------------------------------------------------------------------------
L=0  Nkbl=1  erefs: 0.17977+309
L=1  Nkbl=1  erefs: 0.17977+309
L=2  Nkbl=1  erefs: 0.17977+309
L=3  Nkbl=1  erefs: 0.17977+309
===============================================================================
</basis_specs>

atom: Called for B                     (Z =   5)

read_vps: Pseudopotential generation method:
read_vps: ATM3      Troullier-Martins                       
Total valence charge:    3.00000

read_vps: Pseudopotential includes a core correction:
read_vps: Pseudo-core for xc-correction

xc_check: Exchange-correlation functional:
xc_check: GGA Perdew, Burke & Ernzerhof 1996
V l=0 = -2*Zval/r beyond r=  1.7165
V l=1 = -2*Zval/r beyond r=  1.7165
V l=2 = -2*Zval/r beyond r=  1.7165
V l=3 = -2*Zval/r beyond r=  1.6951
All V_l potentials equal beyond r=  1.7165
This should be close to max(r_c) in ps generation
All pots = -2*Zval/r beyond r=  1.7165

VLOCAL1: 99.0% of the norm of Vloc inside     14.733 Ry
VLOCAL1: 99.9% of the norm of Vloc inside     33.577 Ry
atom: Maximum radius for 4*pi*r*r*local-pseudopot. charge    2.04484
atom: Maximum radius for r*vlocal+2*Zval:    1.75994
GHOST: No ghost state for L =  0
GHOST: No ghost state for L =  1
GHOST: No ghost state for L =  2
GHOST: No ghost state for L =  3

KBgen: Kleinman-Bylander projectors: 
   l= 0   rc=  1.897051   el= -0.693730   Ekb=  4.595746   kbcos=  0.286105
   l= 1   rc=  1.920920   el= -0.265236   Ekb= -2.350715   kbcos= -0.315747
   l= 2   rc=  2.044840   el=  0.002055   Ekb= -0.690767   kbcos= -0.013822
   l= 3   rc=  2.149707   el=  0.003188   Ekb= -0.315358   kbcos= -0.002055

KBgen: Total number of  Kleinman-Bylander projectors:   16
atom: -------------------------------------------------------------------------

atom: SANKEY-TYPE ORBITALS:
atom: Selected multiple-zeta basis: split     

SPLIT: Orbitals with angular momentum L= 0

SPLIT: Basis orbitals for state 2s

SPLIT: PAO cut-off radius determined from an
SPLIT: energy shift=  0.007350 Ry

   izeta = 1
                 lambda =    1.000000
                     rc =    5.422032
                 energy =   -0.686029
                kinetic =    0.576707
    potential(screened) =   -1.262736
       potential(ionic) =   -3.271094

   izeta = 2
                 rmatch =    4.222573
              splitnorm =    0.150000
                 energy =   -0.602132
                kinetic =    0.858975
    potential(screened) =   -1.461107
       potential(ionic) =   -3.582536

SPLIT: Orbitals with angular momentum L= 1

SPLIT: Basis orbitals for state 2p

SPLIT: PAO cut-off radius determined from an
SPLIT: energy shift=  0.007350 Ry

   izeta = 1
                 lambda =    1.000000
                     rc =    6.790259
                 energy =   -0.258578
                kinetic =    1.481412
    potential(screened) =   -1.739989
       potential(ionic) =   -3.657461

   izeta = 2
                 rmatch =    4.608740
              splitnorm =    0.150000
                 energy =   -0.173757
                kinetic =    2.186690
    potential(screened) =   -2.360447
       potential(ionic) =   -4.464260

POLgen: Perturbative polarization orbital with L=  2

POLgen: Polarization orbital for state 2p

   izeta = 1
                     rc =    6.790259
                 energy =    0.684082
                kinetic =    1.471481
    potential(screened) =   -0.787399
       potential(ionic) =   -2.406985
atom: Total number of Sankey-type orbitals: 13

atm_pop: Valence configuration (for local Pseudopot. screening):
 2s( 2.00)                                                            
 2p( 1.00)                                                            
Vna: chval, zval:    3.00000   3.00000

Vna:  Cut-off radius for the neutral-atom potential:   6.790259
comcore: Pseudo-core radius Rcore=  2.122997

atom: _________________________________________________________________________

prinput: Basis input ----------------------------------------------------------

PAO.BasisType split     

%block ChemicalSpeciesLabel
    1    6 C                       # Species index, atomic number, species label
    2    5 B                       # Species index, atomic number, species label
%endblock ChemicalSpeciesLabel

%block PAO.Basis                 # Define Basis set
C                     2                    # Species label, number of l-shells
 n=2   0   2                         # n, l, Nzeta 
   4.633      3.432   
   1.000      1.000   
 n=2   1   2 P   1                   # n, l, Nzeta, Polarization, NzetaPol
   5.659      3.653   
   1.000      1.000   
B                     2                    # Species label, number of l-shells
 n=2   0   2                         # n, l, Nzeta 
   5.422      4.223   
   1.000      1.000   
 n=2   1   2 P   1                   # n, l, Nzeta, Polarization, NzetaPol
   6.790      4.609   
   1.000      1.000   
%endblock PAO.Basis

prinput: ----------------------------------------------------------------------

coor:   Atomic-coordinates input format  =     Cartesian coordinates
coor:                                          (in Angstroms)

siesta: Atomic coordinates (Bohr) and species
siesta:      2.23554   1.32097   0.00000  1        1
siesta:     32.50328  21.48508   0.00000  1        2
siesta:     34.83141  22.82873   0.00000  1        3
siesta:     34.83116  17.45226   0.00000  1        4
siesta:     37.15930  18.79590   0.00000  1        5
siesta:     34.83104  14.76308   0.00000  1        6
siesta:     30.17465   9.38661   0.00000  1        7
siesta:     32.50278  10.73026   0.00000  1        8
siesta:     30.17453   6.69743   0.00000  1        9
siesta:     30.17527  22.82873   0.00000  1       10
siesta:      6.89168   1.32097   0.00000  1       11
siesta:      9.21981   2.66461   0.00000  1       12
siesta:     11.54782   1.32097   0.00000  1       13
siesta:     16.20396   1.32097   0.00000  1       14
siesta:     18.53210   2.66461   0.00000  1       15
siesta:     20.86199   1.32097   0.00000  1       16
siesta:     25.51813   1.32097   0.00000  1       17
siesta:     27.84627   2.66461   0.00000  1       18
siesta:      4.56380   5.35379   0.00000  1       19
siesta:      6.89193   6.69743   0.00000  1       20
siesta:     11.54807   6.69743   0.00000  1       21
siesta:     13.87608   5.35379   0.00000  1       22
siesta:     16.20421   6.69743   0.00000  1       23
siesta:     20.86224   6.69743   0.00000  1       24
siesta:     23.19025   5.35379   0.00000  1       25
siesta:     25.51838   6.69743   0.00000  1       26
siesta:      6.89205   9.38661   0.00000  1       27
siesta:     11.54820   9.38661   0.00000  1       28
siesta:     13.87633  10.73026   0.00000  1       29
siesta:     16.20434   9.38661   0.00000  1       30
siesta:     20.86237   9.38661   0.00000  1       31
siesta:     23.19050  10.73026   0.00000  1       32
siesta:      9.22031  13.41944   0.00000  1       33
siesta:     11.54845  14.76308   0.00000  1       34
siesta:     16.20459  14.76308   0.00000  1       35
siesta:     18.53448  13.41944   0.00000  1       36
siesta:     20.86262  14.76308   0.00000  1       37
siesta:     11.54857  17.45226   0.00000  1       38
siesta:     16.20471  17.45226   0.00000  1       39
siesta:     18.53284  18.79590   0.00000  1       40
siesta:     13.87683  21.48508   0.00000  1       41
siesta:     16.20496  22.82873   0.00000  1       42
siesta:     20.86299  22.82873   0.00000  1       43
siesta:     25.51851   9.38661   0.00000  1       44
siesta:     25.51876  14.76308   0.00000  1       45
siesta:     20.86274  17.45226   0.00000  1       46
siesta:     27.84677  13.41944   0.00000  1       47
siesta:     30.17490  14.76308   0.00000  1       48
siesta:     25.51888  17.45226   0.00000  1       49
siesta:     27.84702  18.79590   0.00000  1       50
siesta:     23.19100  21.48508   0.00000  1       51
siesta:     25.51913  22.82873   0.00000  1       52
siesta:     30.17503  17.45226   0.00000  1       53
siesta:     39.48945  22.82873   0.00000  1       54
siesta:      4.56367   2.66461   0.00000  2       55
siesta:     32.50291  13.41944   0.00000  2       56
siesta:     27.84639   5.35379   0.00000  2       57
siesta:     27.84714  21.48508   0.00000  2       58
siesta:     13.87595   2.66461   0.00000  2       59
siesta:     23.19013   2.66461   0.00000  2       60
siesta:      9.21994   5.35379   0.00000  2       61
siesta:     18.53411   5.35379   0.00000  2       62
siesta:      9.22019  10.73026   0.00000  2       63
siesta:     18.53247  10.73026   0.00000  2       64
siesta:     13.87645  13.41944   0.00000  2       65
siesta:     13.87670  18.79590   0.00000  2       66
siesta:     18.53486  21.48508   0.00000  2       67
siesta:     27.84664  10.73026   0.00000  2       68
siesta:     23.19063  13.41944   0.00000  2       69
siesta:     23.19088  18.79590   0.00000  2       70
siesta:     32.50316  18.79590   0.00000  2       71
siesta:     37.16131  21.48508   0.00000  2       72

siesta: System type = slab      

initatomlists: Number of atoms, orbitals, and projectors:     72   936  1152

siesta: ******************** Simulation parameters ****************************
siesta:
siesta: The following are some of the parameters of the simulation.
siesta: A complete list of the parameters used, including default values,
siesta: can be found in file out.fdf
siesta:
redata: Non-Collinear-spin run           =     F
redata: SpinPolarized (Up/Down) run      =     F
redata: Number of spin components        =     1
redata: Long output                      =     F
redata: Number of Atomic Species         =        2
redata: Charge density info will appear in .RHO file
redata: Write Mulliken Pop.              =     NO
redata: Mesh Cutoff                      =   200.0000  Ry
redata: Net charge of the system         =     0.0000 |e|
redata: Max. number of SCF Iter          =      500
redata: SCF convergence failure will abort job
redata: Performing Pulay mixing using    =    10 iterations
redata: Mix DM in first SCF step ?       =     F
redata: Write Pulay info on disk?        =     F
redata: Discard 1st Pulay DM after  kick =     F
redata: New DM Mixing Weight             =     0.0500
redata: New DM Occupancy tolerance       = 0.000000000001
redata: No kicks to SCF
redata: DM Mixing Weight for Kicks       =     0.5000
redata: DM Tolerance for SCF             =     0.000100
redata: Require Energy convergence for SCF =     F
redata: DM Energy tolerance for SCF      =     0.000100 eV
redata: Require Harris convergence for SCF =     F
redata: DM Harris energy tolerance for SCF =     0.000100 eV
redata: Using Saved Data (generic)   =     F
redata: Use continuation files for DM    =     T
redata: Neglect nonoverlap interactions  =     F
redata: Method of Calculation            =     Diagonalization
redata: Divide and Conquer               =     T
redata: Electronic Temperature           =     0.0019  Ry
redata: Fix the spin of the system       =     F
redata: Dynamics option                  =     Verlet MD run
redata: Initial MD time step             =        1
redata:   Final MD time step             =        1
redata: Length of MD time step           =     1.0000  fs
redata: Initial Temperature of MD run    =     0.0000  K
redata: Perform a MD quench              =     F
redata: ***********************************************************************
Total number of electrons:   270.000000
Total ionic charge:   270.000000

* ProcessorY, Blocksize:    2  24

k-point displ. along   1 input, could be:     0.00    0.50
k-point displ. along   2 input, could be:     0.00    0.50
 Kpoints in:          364 . Kpoints trimmed:          352

siesta: k-grid: Number of k-points =   352
siesta: k-grid: Cutoff (effective) =     5.000 Ang
siesta: k-grid: Supercell and displacements
siesta: k-grid:   26   0   0      0.000
siesta: k-grid:    0  26   0      0.000
siesta: k-grid:    0   0   1      0.000
Naive supercell factors:     2    2    2

superc: Internal auxiliary supercell:     2 x     2 x     2  =       8
superc: Number of atoms, orbitals, and projectors:    576   7488   9216

* Maximum dynamic memory allocated =     6 MB

siesta:                 ==============================
                            Begin MD step =      1
                        ==============================

superc: Internal auxiliary supercell:     2 x     2 x     2  =       8
superc: Number of atoms, orbitals, and projectors:    576   7488   9216

outcell: Unit cell vectors (Ang):
       14.785000    0.000000    0.000000
        7.393000   12.805052    0.000000
        0.000000    0.000000   10.000000

outcell: Cell vector modules (Ang)   :   14.785000   14.786000   10.000000
outcell: Cell angles (23,13,12) (deg):     90.0000     90.0000     60.0000
outcell: Cell volume (Ang**3)        :   1893.2269
New_DM. Step:     1
Initializing Density Matrix...

InitMesh: MESH =   120 x   120 x    90 =     1296000
InitMesh: Mesh cutoff (required, used) =   200.000   223.865 Ry

* Maximum dynamic memory allocated =   218 MB

stepf: Fermi-Dirac step function

siesta: Program's energy decomposition (eV):
siesta: Ebs     =     -4339.260856
siesta: Eions   =     16097.990269
siesta: Ena     =      3563.143411
siesta: Ekin    =      5428.893495
siesta: Enl     =       373.457772
siesta: DEna    =        -0.000007
siesta: DUscf   =         0.000000
siesta: DUext   =         0.000000
siesta: Exc     =     -3983.543461
siesta: eta*DQ  =         0.000000
siesta: Emadel  =         0.000000
siesta: Emeta   =         0.000000
siesta: Emolmec =         0.000000
siesta: Ekinion =         0.000000
siesta: Eharris =    -10638.795341
siesta: Etot    =    -10716.039060
siesta: FreeEng =    -10716.039060

siesta: iscf   Eharris(eV)      E_KS(eV)   FreeEng(eV)   dDmax  Ef(eV)
siesta:    1   -10638.7953   -10716.0391   -10716.0391  1.8642 -8.6902
timer: Routine,Calls,Time,% = IterSCF        1    6783.254  99.81
elaps: Routine,Calls,Wall,% = IterSCF        1     849.005  99.81
siesta:    2   -10609.1127   -10591.0998   -10591.0998  0.2713 -4.5315
siesta:    3   -10603.6651   -10628.4803   -10628.5238  0.4767 -5.6636
siesta:    4   -10603.6582   -10626.0412   -10626.0533  0.4379 -5.6411
siesta:    5   -10603.5559   -10603.2510   -10603.2654  0.0062 -5.9062
siesta:    6   -10603.5386   -10603.2118   -10603.2221  0.0058 -5.9134
siesta:    7   -10603.4762   -10603.3942   -10603.4038  0.0071 -5.8979
siesta:    8   -10603.4678   -10603.4803   -10603.4878  0.0020 -5.8826
siesta:    9   -10603.4674   -10603.4492   -10603.4581  0.0011 -5.8804
siesta:   10   -10603.4671   -10603.4594   -10603.4684  0.0006 -5.8797
siesta:   11   -10603.4671   -10603.4697   -10603.4788  0.0002 -5.8787
siesta:   12   -10603.4670   -10603.4688   -10603.4779  0.0001 -5.8786

siesta: E_KS(eV) =           -10603.4704

siesta: E_KS - E_eggbox =    -10603.4704

siesta: Atomic forces (eV/Ang):
----------------------------------------
   Tot    0.238595   -0.060509    0.000000
----------------------------------------
   Max    4.752500
   Res    2.378363    sqrt( Sum f_i^2 / 3N )
----------------------------------------
   Max    4.752500    constrained

Stress-tensor-Voigt (kbar):     -205.73     -203.98       -0.51       -0.91        0.00        0.00
(Free)E + p*V (eV/cell)   -10441.8985
Target enthalpy (eV/cell)   -10603.4795

siesta: Stress tensor (static) (eV/Ang**3):
        -0.128408   -0.000566    0.000000
        -0.000566   -0.127312    0.000000
         0.000000    0.000000   -0.000321

siesta: Pressure (static):        136.74227309  kBar

siesta: Stress tensor (total) (eV/Ang**3):
        -0.128408   -0.000566    0.000000
        -0.000566   -0.127312    0.000000
         0.000000    0.000000   -0.000321

siesta: Pressure (total):        136.74227309  kBar

siesta: Temp_ion =       0.000 K

* Maximum dynamic memory allocated =   233 MB

siesta: Program's energy decomposition (eV):
siesta: Ebs     =     -3417.116152
siesta: Eions   =     16097.990269
siesta: Ena     =      3563.143411
siesta: Ekin    =      6999.769113
siesta: Enl     =      -596.221502
siesta: DEna    =      -407.015482
siesta: DUscf   =        48.204795
siesta: DUext   =         0.000000
siesta: Exc     =     -4113.360462
siesta: eta*DQ  =         0.000000
siesta: Emadel  =         0.000000
siesta: Emeta   =         0.000000
siesta: Emolmec =         0.000000
siesta: Ekinion =         0.000000
siesta: Eharris =    -10603.467040
siesta: Etot    =    -10603.470397
siesta: FreeEng =    -10603.479500

siesta: Final energy (eV):
siesta:  Band Struct. =   -3417.116152
siesta:       Kinetic =    6999.769113
siesta:       Hartree =   20328.751017
siesta:    Ext. field =       0.000000
siesta:   Exch.-corr. =   -4113.360462
siesta:  Ion-electron =  -46892.739260
siesta:       Ion-ion =   13074.109196
siesta:       Ekinion =       0.000000
siesta:         Total =  -10603.470397

siesta: Atomic forces (eV/Ang):
siesta:      1   -4.130999   -2.411046    0.000000
siesta:      2    0.008073    4.743854    0.000000
siesta:      3   -4.078378    2.391727    0.000000
siesta:      4    4.126219   -2.386205    0.000000
siesta:      5    0.018723   -4.745588    0.000000
siesta:      6    4.133430    2.378172    0.000000
siesta:      7    4.124710   -2.391717    0.000000
siesta:      8    0.009461   -4.746337    0.000000
siesta:      9    4.131907    2.377847    0.000000
siesta:     10    4.116216    2.403448    0.000000
siesta:     11    4.127199   -2.410180    0.000000
siesta:     12   -0.002799   -4.745617    0.000000
siesta:     13   -4.106560   -2.413931    0.000000
siesta:     14    4.132073   -2.408323    0.000000
siesta:     15    0.029253   -4.752500    0.000000
siesta:     16   -4.145253   -2.408689    0.000000
siesta:     17    4.129581   -2.409181    0.000000
siesta:     18    0.006140   -4.747876    0.000000
siesta:     19   -0.006344    4.743774    0.000000
siesta:     20   -4.124138    2.382822    0.000000
siesta:     21    4.120281    2.382878    0.000000
siesta:     22    0.009003    4.738941    0.000000
siesta:     23   -4.085865    2.367941    0.000000
siesta:     24    4.116300    2.381547    0.000000
siesta:     25    0.008922    4.739420    0.000000
siesta:     26   -4.123345    2.382252    0.000000
siesta:     27   -4.122442   -2.389754    0.000000
siesta:     28    4.124226   -2.389175    0.000000
siesta:     29   -0.004897   -4.741247    0.000000
siesta:     30   -4.108405   -2.393151    0.000000
siesta:     31    4.086965   -2.374460    0.000000
siesta:     32   -0.005194   -4.740527    0.000000
siesta:     33   -0.003718    4.744784    0.000000
siesta:     34   -4.123610    2.384993    0.000000
siesta:     35    4.149177    2.375403    0.000000
siesta:     36   -0.027796    4.749900    0.000000
siesta:     37   -4.125575    2.382772    0.000000
siesta:     38   -4.123992   -2.391713    0.000000
siesta:     39    4.127140   -2.389424    0.000000
siesta:     40    0.031611   -4.751122    0.000000
siesta:     41    0.022837    4.737903    0.000000
siesta:     42   -4.077612    2.389792    0.000000
siesta:     43    4.112856    2.402565    0.000000
siesta:     44   -4.110973   -2.395141    0.000000
siesta:     45    4.119150    2.383523    0.000000
siesta:     46   -4.140271   -2.385982    0.000000
siesta:     47    0.006211    4.739764    0.000000
siesta:     48   -4.122866    2.382372    0.000000
siesta:     49    4.123465   -2.389478    0.000000
siesta:     50   -0.004782   -4.742086    0.000000
siesta:     51    0.009092    4.741711    0.000000
siesta:     52   -4.126852    2.404001    0.000000
siesta:     53   -4.110671   -2.392907    0.000000
siesta:     54    4.098406    2.407702    0.000000
siesta:     55   -0.004217    0.011191    0.000000
siesta:     56    0.015262   -0.003289    0.000000
siesta:     57    0.014396   -0.003071    0.000000
siesta:     58    0.014686    0.000727    0.000000
siesta:     59   -0.001898    0.012592    0.000000
siesta:     60   -0.004393    0.011029    0.000000
siesta:     61    0.014351   -0.002611    0.000000
siesta:     62   -0.025943    0.013184    0.000000
siesta:     63   -0.002910    0.015705    0.000000
siesta:     64    0.038668   -0.000831    0.000000
siesta:     65    0.016367   -0.004309    0.000000
siesta:     66   -0.003371    0.017606    0.000000
siesta:     67   -0.026729    0.014075    0.000000
siesta:     68   -0.002802    0.015354    0.000000
siesta:     69    0.015255   -0.004216    0.000000
siesta:     70   -0.003854    0.016487    0.000000
siesta:     71   -0.001919    0.016824    0.000000
siesta:     72   -0.027645    0.014590    0.000000
siesta: ----------------------------------------
siesta:    Tot    0.238595   -0.060509    0.000000

siesta: Stress tensor (static) (eV/Ang**3):
siesta:    -0.128408   -0.000566    0.000000
siesta:    -0.000566   -0.127312    0.000000
siesta:     0.000000    0.000000   -0.000321

siesta: Cell volume =       1893.226895 Ang**3

siesta: Pressure (static):
siesta:                Solid            Molecule  Units
siesta:           0.00092954          0.00022500  Ry/Bohr**3
siesta:           0.08534689          0.02065873  eV/Ang**3
siesta:         136.74227309         33.09928556  kBar
(Free)E+ p_basis*V_orbitals  =      -10567.054722
(Free)Eharris+ p_basis*V_orbitals  =      -10567.052978

siesta: Electric dipole (a.u.)  =    0.000000    0.000000    0.000000
siesta: Electric dipole (Debye) =    0.000000    0.000000    0.000000

* Maximum dynamic memory allocated : Node    0 =   233 MB
* Maximum dynamic memory allocated : Node    1 =    83 MB
* Maximum dynamic memory allocated : Node    2 =    86 MB
* Maximum dynamic memory allocated : Node    3 =   221 MB
* Maximum dynamic memory allocated : Node    4 =   232 MB
* Maximum dynamic memory allocated : Node    5 =    83 MB
* Maximum dynamic memory allocated : Node    6 =    87 MB
* Maximum dynamic memory allocated : Node    7 =   215 MB

* Maximum memory occured during matrixMtoO                    

timer: CPU execution times:
timer:  Routine       Calls   Time/call    Tot.time        %
timer:  siesta            1   81237.562   81237.562   100.00
timer:  Setup             1       3.819       3.819     0.00
timer:  bands             1       0.018       0.018     0.00
timer:  writewave         1       0.044       0.044     0.00
timer:  KSV_init          1       0.008       0.008     0.00
timer:  IterMD            1   81225.853   81225.853    99.99
timer:  hsparse           1       0.391       0.391     0.00
timer:  overlap           1       7.778       7.778     0.01
timer:  IterSCF          12    6750.725   81008.701    99.72
timer:  kinefsm           2       4.019       8.038     0.01
timer:  nlefsm            2      20.974      41.948     0.05
timer:  DHSCF            13     120.849    1571.033     1.93
timer:  DHSCF1            1       0.999       0.999     0.00
timer:  DHSCF2            1      43.246      43.246     0.05
timer:  REORD           106       0.010       1.067     0.00
timer:  POISON           14       2.258      31.608     0.04
timer:  DHSCF3           13     114.214    1484.782     1.83
timer:  rhoofd           13      22.867     297.269     0.37
timer:  cellXC           13       3.547      46.112     0.06
timer:  vmat             13      59.325     771.228     0.95
timer:  MolMec            2       0.000       0.000     0.00
timer:  diagon           12    6628.216   79538.592    97.91
timer:  c-eigval       4224       6.695   28278.733    34.81
timer:  c-buildHS      4224       0.125     527.285     0.65
timer:  cdiag          8448       6.876   58092.171    71.51
timer:  cdiag1         8448       0.428    3619.356     4.46
timer:  cdiag2         8448       1.908   16114.829    19.84
timer:  cdiag3         8448       3.957   33430.684    41.15
timer:  cdiag4         8448       0.227    1917.846     2.36
timer:  c-eigvec       4224       7.260   30666.664    37.75
timer:  c-buildD       4224       4.868   20560.543    25.31
timer:  DHSCF4            1      41.260      41.260     0.05
timer:  dfscf             1      38.620      38.620     0.05
timer:  overfsm           1       0.462       0.462     0.00
timer:  optical           1       6.942       6.942     0.01
  

elaps: ELAPSED times:
elaps:  Routine       Calls   Time/call    Tot.time        %
elaps:  siesta            1   10166.485   10166.485   100.00
elaps:  Setup             1       0.493       0.493     0.00
elaps:  bands             1       0.002       0.002     0.00
elaps:  writewave         1       0.006       0.006     0.00
elaps:  KSV_init          1       0.001       0.001     0.00
elaps:  IterMD            1   10164.997   10164.997    99.99
elaps:  hsparse           1       0.049       0.049     0.00
elaps:  overlap           1       0.987       0.987     0.01
elaps:  IterSCF          12     844.831   10137.970    99.72
elaps:  kinefsm           2       0.509       1.017     0.01
elaps:  nlefsm            2       2.619       5.238     0.05
elaps:  DHSCF            13      15.422     200.486     1.97
elaps:  DHSCF1            1       0.128       0.128     0.00
elaps:  DHSCF2            1       5.406       5.406     0.05
elaps:  REORD           106       0.001       0.144     0.00
elaps:  POISON           14       0.282       3.953     0.04
elaps:  DHSCF3           13      14.289     185.760     1.83
elaps:  rhoofd           13       4.829      62.781     0.62
elaps:  cellXC           13       0.443       5.759     0.06
elaps:  vmat             13       7.422      96.487     0.95
elaps:  MolMec            2       0.000       0.000     0.00
elaps:  diagon           12     829.502    9954.021    97.91
elaps:  c-eigval       4224       0.838    3538.116    34.80
elaps:  c-buildHS      4224       0.017      71.446     0.70
elaps:  cdiag          8448       0.849    7173.990    70.57
elaps:  cdiag1         8448       0.053     448.315     4.41
elaps:  cdiag2         8448       0.239    2016.217    19.83
elaps:  cdiag3         8448       0.496    4188.255    41.20
elaps:  cdiag4         8448       0.028     239.229     2.35
elaps:  c-eigvec       4224       0.889    3755.550    36.94
elaps:  c-buildD       4224       0.629    2655.859    26.12
elaps:  DHSCF4            1       9.093       9.093     0.09
elaps:  dfscf             1       8.587       8.587     0.08
elaps:  overfsm           1       0.058       0.058     0.00
elaps:  optical           1       0.001       0.001     0.00
  
>> End of run:   3-DEC-2015  23:46:45
