Siesta Version:                                        siesta-3.2-pl-3
Architecture  : x86_64-unknown-linux-gnu--unknown
Compiler flags: mpiifort -g -O2 -fPIC -xSSE4.1 -fp-model source -shared-intel 
PARALLEL version

* Running on    8 nodes in parallel
>> Start of run:   3-DEC-2015  16:10:50

                           ***********************       
                           *  WELCOME TO SIESTA  *       
                           ***********************       

reinit: Reading from standard input
************************** Dump of input data file ****************************
#(1) General system descriptors
SystemName            GRP_doping    # Descriptive name of the system
SystemLabel           GRP_doping    # Short name for naming files
%include STRUCT.fdf
%include KPT.fdf
%include BASIS.fdf
#%include TS.fdf # for transiesta calculation
#(4) DFT, Grid, SCF
XC.functional         GGA           # LDA or GGA (default = LDA)
XC.authors            PBE           # CA (Ceperley-Aldr) = PZ
                                    #    (Perdew-Zunger) - LDA - Default
                                    # PW92 (Perdew-Wang-92) - LDA
                                    # PBE (Perdew-Burke-Ernzerhof) - GGA
MeshCutoff            200.000000    Ry      # Default: 50.0 Ry ~ 0.444 Bohr
                                    #         100.0 Ry ~ 0.314 Bohr
MaxSCFIterations      500           # Default: 50
DM.MixingWeight       0.05          # Default: 0.25
DM.NumberPulay        10            # Default: 0
DM.PulayOnFile        F             # SystemLabel.P1, SystemLabel.P2
DM.Tolerance          1.d-4         # Default: 1.d-4
DM.UseSaveDM          .true.        # because of the bug
SCFMustConverge       .true.
NeglNonOverlapInt     F             # Default: F
#(5) Eigenvalue problem: order-N or diagonalization
SolutionMethod        Diagon        # or Transiesta
ElectronicTemperature 300.0 K       # Default: 300.0 K
#(6) Molecular dynamics and relaxations
#MD.TypeOfRun          CG            # Type of dynamics:
#MD.VariableCell       F
#MD.NumCGsteps         0           # 0 for single-point / 100 for gopt
#MD.MaxCGDispl         0.2 Bohr      # Default: 0.2 Bohr
#MD.MaxForceTol        0.02 eV/Ang   # Default: 0.04 eV/Ang
#MD.MaxStressTol       1.0 GPa       # Default: 1.0 GPa
# Geometry Constraints
#%block GeometryConstraints
#	position from 1 to 44
#%endblock GeometryConstraints
************************** End of input data file *****************************

reinit: -----------------------------------------------------------------------
reinit: System Name: GRP_doping
reinit: -----------------------------------------------------------------------
reinit: System Label: GRP_doping                                                  
reinit: -----------------------------------------------------------------------

initatom: Reading input for the pseudopotentials and atomic orbitals ----------
 Species number:            1  Label: B Atomic number:           5
 Species number:            2  Label: C Atomic number:           6
Ground state valence configuration:   2s02  2p01
Reading pseudopotential information in formatted form from B.psf

Valence configuration for pseudopotential generation:
2s( 2.00) rc: 1.74
2p( 1.00) rc: 1.74
3d( 0.00) rc: 1.74
4f( 0.00) rc: 1.74
Ground state valence configuration:   2s02  2p02
Reading pseudopotential information in formatted form from C.psf

Valence configuration for pseudopotential generation:
2s( 2.00) rc: 1.54
2p( 2.00) rc: 1.54
3d( 0.00) rc: 1.54
4f( 0.00) rc: 1.54
For B, standard SIESTA heuristics set lmxkb to 3
 (one more than the basis l, including polarization orbitals).
Use PS.lmax or PS.KBprojectors blocks to override.
For C, standard SIESTA heuristics set lmxkb to 3
 (one more than the basis l, including polarization orbitals).
Use PS.lmax or PS.KBprojectors blocks to override.

<basis_specs>
===============================================================================
B                    Z=   5    Mass=  10.810        Charge= 0.17977+309
Lmxo=1 Lmxkb= 3    BasisType=split      Semic=F
L=0  Nsemic=0  Cnfigmx=2
          n=1  nzeta=2  polorb=0
            splnorm:   0.15000    
               vcte:    0.0000    
               rinn:    0.0000    
                rcs:    0.0000      0.0000    
            lambdas:    1.0000      1.0000    
L=1  Nsemic=0  Cnfigmx=2
          n=1  nzeta=2  polorb=1
            splnorm:   0.15000    
               vcte:    0.0000    
               rinn:    0.0000    
                rcs:    0.0000      0.0000    
            lambdas:    1.0000      1.0000    
-------------------------------------------------------------------------------
L=0  Nkbl=1  erefs: 0.17977+309
L=1  Nkbl=1  erefs: 0.17977+309
L=2  Nkbl=1  erefs: 0.17977+309
L=3  Nkbl=1  erefs: 0.17977+309
===============================================================================
</basis_specs>

atom: Called for B                     (Z =   5)

read_vps: Pseudopotential generation method:
read_vps: ATM3      Troullier-Martins                       
Total valence charge:    3.00000

read_vps: Pseudopotential includes a core correction:
read_vps: Pseudo-core for xc-correction

xc_check: Exchange-correlation functional:
xc_check: GGA Perdew, Burke & Ernzerhof 1996
V l=0 = -2*Zval/r beyond r=  1.7165
V l=1 = -2*Zval/r beyond r=  1.7165
V l=2 = -2*Zval/r beyond r=  1.7165
V l=3 = -2*Zval/r beyond r=  1.6951
All V_l potentials equal beyond r=  1.7165
This should be close to max(r_c) in ps generation
All pots = -2*Zval/r beyond r=  1.7165

VLOCAL1: 99.0% of the norm of Vloc inside     14.733 Ry
VLOCAL1: 99.9% of the norm of Vloc inside     33.577 Ry
atom: Maximum radius for 4*pi*r*r*local-pseudopot. charge    2.04484
atom: Maximum radius for r*vlocal+2*Zval:    1.75994
GHOST: No ghost state for L =  0
GHOST: No ghost state for L =  1
GHOST: No ghost state for L =  2
GHOST: No ghost state for L =  3

KBgen: Kleinman-Bylander projectors: 
   l= 0   rc=  1.897051   el= -0.693730   Ekb=  4.595746   kbcos=  0.286105
   l= 1   rc=  1.920920   el= -0.265236   Ekb= -2.350715   kbcos= -0.315747
   l= 2   rc=  2.044840   el=  0.002055   Ekb= -0.690767   kbcos= -0.013822
   l= 3   rc=  2.149707   el=  0.003188   Ekb= -0.315358   kbcos= -0.002055

KBgen: Total number of  Kleinman-Bylander projectors:   16
atom: -------------------------------------------------------------------------

atom: SANKEY-TYPE ORBITALS:
atom: Selected multiple-zeta basis: split     

SPLIT: Orbitals with angular momentum L= 0

SPLIT: Basis orbitals for state 2s

SPLIT: PAO cut-off radius determined from an
SPLIT: energy shift=  0.007350 Ry

   izeta = 1
                 lambda =    1.000000
                     rc =    5.422032
                 energy =   -0.686029
                kinetic =    0.576707
    potential(screened) =   -1.262736
       potential(ionic) =   -3.271094

   izeta = 2
                 rmatch =    4.222573
              splitnorm =    0.150000
                 energy =   -0.602132
                kinetic =    0.858975
    potential(screened) =   -1.461107
       potential(ionic) =   -3.582536

SPLIT: Orbitals with angular momentum L= 1

SPLIT: Basis orbitals for state 2p

SPLIT: PAO cut-off radius determined from an
SPLIT: energy shift=  0.007350 Ry

   izeta = 1
                 lambda =    1.000000
                     rc =    6.790259
                 energy =   -0.258578
                kinetic =    1.481412
    potential(screened) =   -1.739989
       potential(ionic) =   -3.657461

   izeta = 2
                 rmatch =    4.608740
              splitnorm =    0.150000
                 energy =   -0.173757
                kinetic =    2.186690
    potential(screened) =   -2.360447
       potential(ionic) =   -4.464260

POLgen: Perturbative polarization orbital with L=  2

POLgen: Polarization orbital for state 2p

   izeta = 1
                     rc =    6.790259
                 energy =    0.684082
                kinetic =    1.471481
    potential(screened) =   -0.787399
       potential(ionic) =   -2.406985
atom: Total number of Sankey-type orbitals: 13

atm_pop: Valence configuration (for local Pseudopot. screening):
 2s( 2.00)                                                            
 2p( 1.00)                                                            
Vna: chval, zval:    3.00000   3.00000

Vna:  Cut-off radius for the neutral-atom potential:   6.790259
comcore: Pseudo-core radius Rcore=  2.122997

atom: _________________________________________________________________________

<basis_specs>
===============================================================================
C                    Z=   6    Mass=  12.010        Charge= 0.17977+309
Lmxo=1 Lmxkb= 3    BasisType=split      Semic=F
L=0  Nsemic=0  Cnfigmx=2
          n=1  nzeta=2  polorb=0
            splnorm:   0.15000    
               vcte:    0.0000    
               rinn:    0.0000    
                rcs:    0.0000      0.0000    
            lambdas:    1.0000      1.0000    
L=1  Nsemic=0  Cnfigmx=2
          n=1  nzeta=2  polorb=1
            splnorm:   0.15000    
               vcte:    0.0000    
               rinn:    0.0000    
                rcs:    0.0000      0.0000    
            lambdas:    1.0000      1.0000    
-------------------------------------------------------------------------------
L=0  Nkbl=1  erefs: 0.17977+309
L=1  Nkbl=1  erefs: 0.17977+309
L=2  Nkbl=1  erefs: 0.17977+309
L=3  Nkbl=1  erefs: 0.17977+309
===============================================================================
</basis_specs>

atom: Called for C                     (Z =   6)

read_vps: Pseudopotential generation method:
read_vps: ATM3      Troullier-Martins                       
Total valence charge:    4.00000

read_vps: Pseudopotential includes a core correction:
read_vps: Pseudo-core for xc-correction

xc_check: Exchange-correlation functional:
xc_check: GGA Perdew, Burke & Ernzerhof 1996
V l=0 = -2*Zval/r beyond r=  1.5227
V l=1 = -2*Zval/r beyond r=  1.5227
V l=2 = -2*Zval/r beyond r=  1.5227
V l=3 = -2*Zval/r beyond r=  1.5038
All V_l potentials equal beyond r=  1.5227
This should be close to max(r_c) in ps generation
All pots = -2*Zval/r beyond r=  1.5227

VLOCAL1: 99.0% of the norm of Vloc inside     18.722 Ry
VLOCAL1: 99.9% of the norm of Vloc inside     42.668 Ry
atom: Maximum radius for 4*pi*r*r*local-pseudopot. charge    1.83678
atom: Maximum radius for r*vlocal+2*Zval:    1.58088
GHOST: No ghost state for L =  0
GHOST: No ghost state for L =  1
GHOST: No ghost state for L =  2
GHOST: No ghost state for L =  3

KBgen: Kleinman-Bylander projectors: 
   l= 0   rc=  1.704034   el= -1.009801   Ekb=  5.335044   kbcos=  0.316824
   l= 1   rc=  1.704034   el= -0.388707   Ekb= -3.785862   kbcos= -0.366464
   l= 2   rc=  1.791422   el=  0.001971   Ekb= -0.970471   kbcos= -0.009212
   l= 3   rc=  1.859892   el=  0.003065   Ekb= -0.399525   kbcos= -0.001223

KBgen: Total number of  Kleinman-Bylander projectors:   16
atom: -------------------------------------------------------------------------

atom: SANKEY-TYPE ORBITALS:
atom: Selected multiple-zeta basis: split     

SPLIT: Orbitals with angular momentum L= 0

SPLIT: Basis orbitals for state 2s

SPLIT: PAO cut-off radius determined from an
SPLIT: energy shift=  0.007350 Ry

   izeta = 1
                 lambda =    1.000000
                     rc =    4.632753
                 energy =   -1.002270
                kinetic =    0.855760
    potential(screened) =   -1.858031
       potential(ionic) =   -5.417575

   izeta = 2
                 rmatch =    3.431921
              splitnorm =    0.150000
                 energy =   -0.867111
                kinetic =    1.300804
    potential(screened) =   -2.167915
       potential(ionic) =   -5.962684

SPLIT: Orbitals with angular momentum L= 1

SPLIT: Basis orbitals for state 2p

SPLIT: PAO cut-off radius determined from an
SPLIT: energy shift=  0.007350 Ry

   izeta = 1
                 lambda =    1.000000
                     rc =    5.658549
                 energy =   -0.381140
                kinetic =    2.399701
    potential(screened) =   -2.780841
       potential(ionic) =   -6.206085

   izeta = 2
                 rmatch =    3.653288
              splitnorm =    0.150000
                 energy =   -0.249149
                kinetic =    3.542762
    potential(screened) =   -3.791911
       potential(ionic) =   -7.581078

POLgen: Perturbative polarization orbital with L=  2

POLgen: Polarization orbital for state 2p

   izeta = 1
                     rc =    5.658549
                 energy =    1.109913
                kinetic =    2.304789
    potential(screened) =   -1.194876
       potential(ionic) =   -4.013592
atom: Total number of Sankey-type orbitals: 13

atm_pop: Valence configuration (for local Pseudopot. screening):
 2s( 2.00)                                                            
 2p( 2.00)                                                            
Vna: chval, zval:    4.00000   4.00000

Vna:  Cut-off radius for the neutral-atom potential:   5.658549
comcore: Pseudo-core radius Rcore=  1.791422

atom: _________________________________________________________________________

prinput: Basis input ----------------------------------------------------------

PAO.BasisType split     

%block ChemicalSpeciesLabel
    1    5 B                       # Species index, atomic number, species label
    2    6 C                       # Species index, atomic number, species label
%endblock ChemicalSpeciesLabel

%block PAO.Basis                 # Define Basis set
B                     2                    # Species label, number of l-shells
 n=2   0   2                         # n, l, Nzeta 
   5.422      4.223   
   1.000      1.000   
 n=2   1   2 P   1                   # n, l, Nzeta, Polarization, NzetaPol
   6.790      4.609   
   1.000      1.000   
C                     2                    # Species label, number of l-shells
 n=2   0   2                         # n, l, Nzeta 
   4.633      3.432   
   1.000      1.000   
 n=2   1   2 P   1                   # n, l, Nzeta, Polarization, NzetaPol
   5.659      3.653   
   1.000      1.000   
%endblock PAO.Basis

prinput: ----------------------------------------------------------------------

coor:   Atomic-coordinates input format  =     Cartesian coordinates
coor:                                          (in Angstroms)

siesta: Atomic coordinates (Bohr) and species
siesta:      2.23554   1.32097   0.00000  1        1
siesta:      4.56367   2.66461   0.00000  1        2
siesta:     11.54782   1.32097   0.00000  1        3
siesta:     13.87595   2.66461   0.00000  1        4
siesta:     20.86199   1.32097   0.00000  1        5
siesta:     23.19013   2.66461   0.00000  1        6
siesta:      6.89205   9.38661   0.00000  1        7
siesta:      9.22019  10.73026   0.00000  1        8
siesta:     16.20434   9.38661   0.00000  1        9
siesta:     18.53247  10.73026   0.00000  1       10
siesta:     11.54857  17.45226   0.00000  1       11
siesta:     13.87670  18.79590   0.00000  1       12
siesta:     25.51851   9.38661   0.00000  1       13
siesta:     27.84664  10.73026   0.00000  1       14
siesta:     20.86274  17.45226   0.00000  1       15
siesta:     23.19088  18.79590   0.00000  1       16
siesta:     30.17503  17.45226   0.00000  1       17
siesta:     32.50316  18.79590   0.00000  1       18
siesta:     32.50328  21.48508   0.00000  2       19
siesta:     34.83141  22.82873   0.00000  2       20
siesta:     34.83116  17.45226   0.00000  2       21
siesta:     37.15930  18.79590   0.00000  2       22
siesta:     32.50291  13.41944   0.00000  2       23
siesta:     34.83104  14.76308   0.00000  2       24
siesta:     30.17465   9.38661   0.00000  2       25
siesta:     32.50278  10.73026   0.00000  2       26
siesta:     27.84639   5.35379   0.00000  2       27
siesta:     30.17453   6.69743   0.00000  2       28
siesta:     27.84714  21.48508   0.00000  2       29
siesta:     30.17527  22.82873   0.00000  2       30
siesta:      6.89168   1.32097   0.00000  2       31
siesta:      9.21981   2.66461   0.00000  2       32
siesta:     16.20396   1.32097   0.00000  2       33
siesta:     18.53210   2.66461   0.00000  2       34
siesta:     25.51813   1.32097   0.00000  2       35
siesta:     27.84627   2.66461   0.00000  2       36
siesta:      4.56380   5.35379   0.00000  2       37
siesta:      6.89193   6.69743   0.00000  2       38
siesta:      9.21994   5.35379   0.00000  2       39
siesta:     11.54807   6.69743   0.00000  2       40
siesta:     13.87608   5.35379   0.00000  2       41
siesta:     16.20421   6.69743   0.00000  2       42
siesta:     18.53411   5.35379   0.00000  2       43
siesta:     20.86224   6.69743   0.00000  2       44
siesta:     23.19025   5.35379   0.00000  2       45
siesta:     25.51838   6.69743   0.00000  2       46
siesta:     11.54820   9.38661   0.00000  2       47
siesta:     13.87633  10.73026   0.00000  2       48
siesta:     20.86237   9.38661   0.00000  2       49
siesta:     23.19050  10.73026   0.00000  2       50
siesta:      9.22031  13.41944   0.00000  2       51
siesta:     11.54845  14.76308   0.00000  2       52
siesta:     13.87645  13.41944   0.00000  2       53
siesta:     16.20459  14.76308   0.00000  2       54
siesta:     18.53448  13.41944   0.00000  2       55
siesta:     20.86262  14.76308   0.00000  2       56
siesta:     16.20471  17.45226   0.00000  2       57
siesta:     18.53284  18.79590   0.00000  2       58
siesta:     13.87683  21.48508   0.00000  2       59
siesta:     16.20496  22.82873   0.00000  2       60
siesta:     18.53486  21.48508   0.00000  2       61
siesta:     20.86299  22.82873   0.00000  2       62
siesta:     23.19063  13.41944   0.00000  2       63
siesta:     25.51876  14.76308   0.00000  2       64
siesta:     27.84677  13.41944   0.00000  2       65
siesta:     30.17490  14.76308   0.00000  2       66
siesta:     25.51888  17.45226   0.00000  2       67
siesta:     27.84702  18.79590   0.00000  2       68
siesta:     23.19100  21.48508   0.00000  2       69
siesta:     25.51913  22.82873   0.00000  2       70
siesta:     37.16131  21.48508   0.00000  2       71
siesta:     39.48945  22.82873   0.00000  2       72

siesta: System type = slab      

initatomlists: Number of atoms, orbitals, and projectors:     72   936  1152

siesta: ******************** Simulation parameters ****************************
siesta:
siesta: The following are some of the parameters of the simulation.
siesta: A complete list of the parameters used, including default values,
siesta: can be found in file out.fdf
siesta:
redata: Non-Collinear-spin run           =     F
redata: SpinPolarized (Up/Down) run      =     F
redata: Number of spin components        =     1
redata: Long output                      =     F
redata: Number of Atomic Species         =        2
redata: Charge density info will appear in .RHO file
redata: Write Mulliken Pop.              =     NO
redata: Mesh Cutoff                      =   200.0000  Ry
redata: Net charge of the system         =     0.0000 |e|
redata: Max. number of SCF Iter          =      500
redata: SCF convergence failure will abort job
redata: Performing Pulay mixing using    =    10 iterations
redata: Mix DM in first SCF step ?       =     F
redata: Write Pulay info on disk?        =     F
redata: Discard 1st Pulay DM after  kick =     F
redata: New DM Mixing Weight             =     0.0500
redata: New DM Occupancy tolerance       = 0.000000000001
redata: No kicks to SCF
redata: DM Mixing Weight for Kicks       =     0.5000
redata: DM Tolerance for SCF             =     0.000100
redata: Require Energy convergence for SCF =     F
redata: DM Energy tolerance for SCF      =     0.000100 eV
redata: Require Harris convergence for SCF =     F
redata: DM Harris energy tolerance for SCF =     0.000100 eV
redata: Using Saved Data (generic)   =     F
redata: Use continuation files for DM    =     T
redata: Neglect nonoverlap interactions  =     F
redata: Method of Calculation            =     Diagonalization
redata: Divide and Conquer               =     T
redata: Electronic Temperature           =     0.0019  Ry
redata: Fix the spin of the system       =     F
redata: Dynamics option                  =     Verlet MD run
redata: Initial MD time step             =        1
redata:   Final MD time step             =        1
redata: Length of MD time step           =     1.0000  fs
redata: Initial Temperature of MD run    =     0.0000  K
redata: Perform a MD quench              =     F
redata: ***********************************************************************
Total number of electrons:   270.000000
Total ionic charge:   270.000000

* ProcessorY, Blocksize:    2  24

k-point displ. along   1 input, could be:     0.00    0.50
k-point displ. along   2 input, could be:     0.00    0.50
 Kpoints in:          364 . Kpoints trimmed:          352

siesta: k-grid: Number of k-points =   352
siesta: k-grid: Cutoff (effective) =     5.000 Ang
siesta: k-grid: Supercell and displacements
siesta: k-grid:   26   0   0      0.000
siesta: k-grid:    0  26   0      0.000
siesta: k-grid:    0   0   1      0.000
Naive supercell factors:     2    2    2

superc: Internal auxiliary supercell:     2 x     2 x     2  =       8
superc: Number of atoms, orbitals, and projectors:    576   7488   9216

* Maximum dynamic memory allocated =     6 MB

siesta:                 ==============================
                            Begin MD step =      1
                        ==============================

superc: Internal auxiliary supercell:     2 x     2 x     2  =       8
superc: Number of atoms, orbitals, and projectors:    576   7488   9216

outcell: Unit cell vectors (Ang):
       14.785000    0.000000    0.000000
        7.393000   12.805052    0.000000
        0.000000    0.000000   10.000000

outcell: Cell vector modules (Ang)   :   14.785000   14.786000   10.000000
outcell: Cell angles (23,13,12) (deg):     90.0000     90.0000     60.0000
outcell: Cell volume (Ang**3)        :   1893.2269
New_DM. Step:     1
Initializing Density Matrix...

InitMesh: MESH =   120 x   120 x    90 =     1296000
InitMesh: Mesh cutoff (required, used) =   200.000   223.865 Ry

* Maximum dynamic memory allocated =   220 MB

stepf: Fermi-Dirac step function

siesta: Program's energy decomposition (eV):
siesta: Ebs     =     -4321.938170
siesta: Eions   =     16097.990269
siesta: Ena     =      3564.267470
siesta: Ekin    =      5428.893495
siesta: Enl     =       374.740168
siesta: DEna    =        -0.000007
siesta: DUscf   =         0.000000
siesta: DUext   =         0.000000
siesta: Exc     =     -3983.844262
siesta: eta*DQ  =         0.000000
siesta: Emadel  =         0.000000
siesta: Emeta   =         0.000000
siesta: Emolmec =         0.000000
siesta: Ekinion =         0.000000
siesta: Eharris =    -10631.376004
siesta: Etot    =    -10713.933405
siesta: FreeEng =    -10713.933405

siesta: iscf   Eharris(eV)      E_KS(eV)   FreeEng(eV)   dDmax  Ef(eV)
siesta:    1   -10631.3760   -10713.9334   -10713.9334  1.8572 -8.6063
timer: Routine,Calls,Time,% = IterSCF        1    8466.342  99.86
elaps: Routine,Calls,Wall,% = IterSCF        1    1060.138  99.86
siesta:    2   -10643.3955   -10565.4527   -10565.4758  0.4195 -3.8448
siesta:    3   -10598.1078   -10631.1038   -10631.1446  0.6839 -5.9977
siesta:    4   -10597.6516   -10630.7437   -10630.7822  0.6766 -6.0057
siesta:    5   -10592.6698   -10597.1617   -10597.2000  0.1826 -5.7670
siesta:    6   -10594.1910   -10594.1607   -10594.2021  0.1171 -5.9101
siesta:    7   -10592.2024   -10590.7469   -10590.7868  0.0242 -5.9939
siesta:    8   -10592.0131   -10590.5740   -10590.6140  0.0060 -6.0581
siesta:    9   -10592.0088   -10590.9796   -10591.0188  0.0044 -6.0480
siesta:   10   -10592.0075   -10591.3617   -10591.4008  0.0034 -6.0421
siesta:   11   -10592.0073   -10591.7806   -10591.8196  0.0016 -6.0328
siesta:   12   -10592.0053   -10592.0343   -10592.0733  0.0007 -6.0278
siesta:   13   -10592.0047   -10592.0279   -10592.0671  0.0004 -6.0281
siesta:   14   -10592.0047   -10592.0030   -10592.0424  0.0003 -6.0281
siesta:   15   -10592.0046   -10592.0136   -10592.0529  0.0002 -6.0283
siesta:   16   -10592.0046   -10592.0206   -10592.0600  0.0001 -6.0282
siesta:   17   -10592.0046   -10592.0071   -10592.0464  0.0000 -6.0283

siesta: E_KS(eV) =           -10592.0066

siesta: E_KS - E_eggbox =    -10592.0066

siesta: Atomic forces (eV/Ang):
----------------------------------------
   Tot    0.251599   -0.090951    0.000000
----------------------------------------
   Max    4.658012
   Res    1.999681    sqrt( Sum f_i^2 / 3N )
----------------------------------------
   Max    4.658012    constrained

Stress-tensor-Voigt (kbar):     -192.44     -195.77       -0.49        3.38        0.00        0.00
(Free)E + p*V (eV/cell)   -10438.9425
Target enthalpy (eV/cell)   -10592.0459

siesta: Stress tensor (static) (eV/Ang**3):
        -0.120110    0.002112    0.000000
         0.002112   -0.122192    0.000000
         0.000000    0.000000   -0.000306

siesta: Pressure (static):        129.56782566  kBar

siesta: Stress tensor (total) (eV/Ang**3):
        -0.120110    0.002112    0.000000
         0.002112   -0.122192    0.000000
         0.000000    0.000000   -0.000306

siesta: Pressure (total):        129.56782566  kBar

siesta: Temp_ion =       0.000 K

* Maximum dynamic memory allocated =   235 MB

siesta: Program's energy decomposition (eV):
siesta: Ebs     =     -3486.698982
siesta: Eions   =     16097.990269
siesta: Ena     =      3564.267470
siesta: Ekin    =      6957.159391
siesta: Enl     =      -584.123941
siesta: DEna    =      -373.183223
siesta: DUscf   =        42.796394
siesta: DUext   =         0.000000
siesta: Exc     =     -4100.932387
siesta: eta*DQ  =         0.000000
siesta: Emadel  =         0.000000
siesta: Emeta   =         0.000000
siesta: Emolmec =         0.000000
siesta: Ekinion =         0.000000
siesta: Eharris =    -10592.004630
siesta: Etot    =    -10592.006565
siesta: FreeEng =    -10592.045891

siesta: Final energy (eV):
siesta:  Band Struct. =   -3486.698982
siesta:       Kinetic =    6957.159391
siesta:       Hartree =   20271.117247
siesta:    Ext. field =       0.000000
siesta:   Exch.-corr. =   -4100.932387
siesta:  Ion-electron =  -46820.563570
siesta:       Ion-ion =   13101.212754
siesta:       Ekinion =       0.000000
siesta:         Total =  -10592.006565

siesta: Atomic forces (eV/Ang):
siesta:      1   -4.628166   -2.689557    0.000000
siesta:      2    4.622012    2.672557    0.000000
siesta:      3   -4.611897   -2.695924    0.000000
siesta:      4    4.625270    2.673191    0.000000
siesta:      5   -4.645242   -2.682191    0.000000
siesta:      6    4.619450    2.671845    0.000000
siesta:      7   -4.628798   -2.663217    0.000000
siesta:      8    4.623207    2.678927    0.000000
siesta:      9   -4.607263   -2.671909    0.000000
siesta:     10    4.658012    2.662086    0.000000
siesta:     11   -4.626461   -2.665195    0.000000
siesta:     12    4.619896    2.677198    0.000000
siesta:     13   -4.612077   -2.670953    0.000000
siesta:     14    4.624572    2.677775    0.000000
siesta:     15   -4.643164   -2.655759    0.000000
siesta:     16    4.621400    2.677526    0.000000
siesta:     17   -4.613087   -2.670973    0.000000
siesta:     18    4.623189    2.677161    0.000000
siesta:     19   -0.161173    2.865291    0.000000
siesta:     20    0.190403   -2.835424    0.000000
siesta:     21    2.406224   -1.585758    0.000000
siesta:     22   -2.372475    1.566559    0.000000
siesta:     23   -1.493070   -0.880814    0.000000
siesta:     24    1.521572    0.865923    0.000000
siesta:     25    2.406152   -1.588746    0.000000
siesta:     26   -2.381656    1.566446    0.000000
siesta:     27   -1.492293   -0.878726    0.000000
siesta:     28    1.520300    0.864718    0.000000
siesta:     29   -1.493621   -0.874481    0.000000
siesta:     30    1.503572    0.891875    0.000000
siesta:     31    2.407864   -1.607277    0.000000
siesta:     32   -2.397637    1.569652    0.000000
siesta:     33    2.412476   -1.605405    0.000000
siesta:     34   -2.357684    1.555660    0.000000
siesta:     35    2.411057   -1.604279    0.000000
siesta:     36   -2.385302    1.562918    0.000000
siesta:     37   -0.179453    2.864178    0.000000
siesta:     38    0.160336   -2.853590    0.000000
siesta:     39   -1.494473   -0.878585    0.000000
siesta:     40    1.508047    0.870494    0.000000
siesta:     41   -0.161877    2.858778    0.000000
siesta:     42    0.187533   -2.861027    0.000000
siesta:     43   -1.530644   -0.870468    0.000000
siesta:     44    1.503173    0.870208    0.000000
siesta:     45   -0.164048    2.858200    0.000000
siesta:     46    0.160829   -2.853313    0.000000
siesta:     47    2.404087   -1.587547    0.000000
siesta:     48   -2.398367    1.573647    0.000000
siesta:     49    2.373878   -1.570633    0.000000
siesta:     50   -2.402715    1.572695    0.000000
siesta:     51   -0.179545    2.864055    0.000000
siesta:     52    0.159294   -2.852134    0.000000
siesta:     53   -1.489886   -0.880335    0.000000
siesta:     54    1.535972    0.862527    0.000000
siesta:     55   -0.195614    2.870050    0.000000
siesta:     56    0.154497   -2.854868    0.000000
siesta:     57    2.409772   -1.585137    0.000000
siesta:     58   -2.356092    1.556919    0.000000
siesta:     59   -0.144956    2.859028    0.000000
siesta:     60    0.192555   -2.835409    0.000000
siesta:     61   -1.530223   -0.869464    0.000000
siesta:     62    1.500398    0.888119    0.000000
siesta:     63   -1.493490   -0.880474    0.000000
siesta:     64    1.507901    0.869741    0.000000
siesta:     65   -0.167816    2.858792    0.000000
siesta:     66    0.163540   -2.853194    0.000000
siesta:     67    2.403410   -1.586087    0.000000
siesta:     68   -2.396862    1.572697    0.000000
siesta:     69   -0.166936    2.863093    0.000000
siesta:     70    0.161206   -2.828255    0.000000
siesta:     71   -1.532157   -0.868516    0.000000
siesta:     72    1.484761    0.894148    0.000000
siesta: ----------------------------------------
siesta:    Tot    0.251599   -0.090951    0.000000

siesta: Stress tensor (static) (eV/Ang**3):
siesta:    -0.120110    0.002112    0.000000
siesta:     0.002112   -0.122192    0.000000
siesta:     0.000000    0.000000   -0.000306

siesta: Cell volume =       1893.226895 Ang**3

siesta: Pressure (static):
siesta:                Solid            Molecule  Units
siesta:           0.00088077          0.00076602  Ry/Bohr**3
siesta:           0.08086900          0.07033355  eV/Ang**3
siesta:         129.56782566        112.68798772  kBar
(Free)E+ p_basis*V_orbitals  =      -10555.621112
(Free)Eharris+ p_basis*V_orbitals  =      -10555.618691

siesta: Electric dipole (a.u.)  =    0.000000    0.000000    0.000000
siesta: Electric dipole (Debye) =    0.000000    0.000000    0.000000

* Maximum dynamic memory allocated : Node    0 =   232 MB
* Maximum dynamic memory allocated : Node    1 =    85 MB
* Maximum dynamic memory allocated : Node    2 =    87 MB
* Maximum dynamic memory allocated : Node    3 =   219 MB
* Maximum dynamic memory allocated : Node    4 =   235 MB
* Maximum dynamic memory allocated : Node    5 =    84 MB
* Maximum dynamic memory allocated : Node    6 =    87 MB
* Maximum dynamic memory allocated : Node    7 =   217 MB

* Maximum memory occured during matrixMtoO                    

timer: CPU execution times:
timer:  Routine       Calls   Time/call    Tot.time        %
timer:  siesta            1  143173.103  143173.103   100.00
timer:  Setup             1       3.082       3.082     0.00
timer:  bands             1       0.011       0.011     0.00
timer:  writewave         1       0.016       0.016     0.00
timer:  KSV_init          1       0.000       0.000     0.00
timer:  IterMD            1  143161.865  143161.865    99.99
timer:  hsparse           1       0.403       0.403     0.00
timer:  overlap           1       7.770       7.770     0.01
timer:  IterSCF          17    8408.335  142941.702    99.84
timer:  kinefsm           2       4.016       8.032     0.01
timer:  nlefsm            2      20.718      41.437     0.03
timer:  DHSCF            18     121.987    2195.774     1.53
timer:  DHSCF1            1       1.079       1.079     0.00
timer:  DHSCF2            1      45.173      45.173     0.03
timer:  REORD           146       0.014       2.040     0.00
timer:  POISON           19       3.693      70.167     0.05
timer:  DHSCF3           18     117.039    2106.696     1.47
timer:  rhoofd           18      22.649     407.676     0.28
timer:  cellXC           18       3.577      64.392     0.04
timer:  vmat             18      60.362    1086.515     0.76
timer:  MolMec            2       0.000       0.000     0.00
timer:  diagon           17    8285.073  140846.241    98.37
timer:  c-eigval       5984       7.241   43329.358    30.26
timer:  c-buildHS      5984       0.223    1331.715     0.93
timer:  cdiag         11968       7.456   89235.164    62.33
timer:  cdiag1        11968       0.464    5558.276     3.88
timer:  cdiag2        11968       1.983   23736.754    16.58
timer:  cdiag3        11968       4.166   49859.745    34.82
timer:  cdiag4        11968       0.272    3257.930     2.28
timer:  c-eigvec       5984       7.979   47744.374    33.35
timer:  c-buildD       5984       8.306   49701.978    34.71
timer:  DHSCF4            1      41.193      41.193     0.03
timer:  dfscf             1      38.568      38.568     0.03
timer:  overfsm           1       0.461       0.461     0.00
timer:  optical           1       7.133       7.133     0.00
  

elaps: ELAPSED times:
elaps:  Routine       Calls   Time/call    Tot.time        %
elaps:  siesta            1   17926.749   17926.749   100.00
elaps:  Setup             1       0.385       0.385     0.00
elaps:  bands             1       0.001       0.001     0.00
elaps:  writewave         1       0.002       0.002     0.00
elaps:  KSV_init          1       0.000       0.000     0.00
elaps:  IterMD            1   17925.344   17925.344    99.99
elaps:  hsparse           1       0.049       0.049     0.00
elaps:  overlap           1       0.979       0.979     0.01
elaps:  IterSCF          17    1052.812   17897.801    99.84
elaps:  kinefsm           2       0.508       1.017     0.01
elaps:  nlefsm            2       2.719       5.438     0.03
elaps:  DHSCF            18      15.473     278.515     1.55
elaps:  DHSCF1            1       0.136       0.136     0.00
elaps:  DHSCF2            1       5.652       5.652     0.03
elaps:  REORD           146       0.002       0.304     0.00
elaps:  POISON           19       0.461       8.756     0.05
elaps:  DHSCF3           18      14.644     263.584     1.47
elaps:  rhoofd           18       4.775      85.951     0.48
elaps:  cellXC           18       0.446       8.020     0.04
elaps:  vmat             18       7.552     135.942     0.76
elaps:  MolMec            2       0.000       0.000     0.00
elaps:  diagon           17    1037.428   17636.278    98.38
elaps:  c-eigval       5984       0.906    5422.030    30.25
elaps:  c-buildHS      5984       0.029     175.791     0.98
elaps:  cdiag         11968       0.913   10922.630    60.93
elaps:  cdiag1        11968       0.058     688.387     3.84
elaps:  cdiag2        11968       0.248    2970.080    16.57
elaps:  cdiag3        11968       0.522    6248.316    34.85
elaps:  cdiag4        11968       0.036     434.313     2.42
elaps:  c-eigvec       5984       0.962    5755.638    32.11
elaps:  c-buildD       5984       1.078    6449.054    35.97
elaps:  DHSCF4            1       8.916       8.916     0.05
elaps:  dfscf             1       8.415       8.415     0.05
elaps:  overfsm           1       0.061       0.061     0.00
elaps:  optical           1       0.000       0.000     0.00
  
>> End of run:   3-DEC-2015  21:09:37
