Siesta Version:                                        siesta-3.2-pl-3
Architecture  : x86_64-unknown-linux-gnu--unknown
Compiler flags: mpiifort -g -O2 -fPIC -xSSE4.1 -fp-model source -shared-intel 
PARALLEL version

* Running on    8 nodes in parallel
>> Start of run:   1-DEC-2015   2:01:46

                           ***********************       
                           *  WELCOME TO SIESTA  *       
                           ***********************       

reinit: Reading from standard input
************************** Dump of input data file ****************************
#(1) General system descriptors
SystemName            GRP_doping    # Descriptive name of the system
SystemLabel           GRP_doping    # Short name for naming files
%include STRUCT.fdf
%include KPT.fdf
%include BASIS.fdf
#%include TS.fdf # for transiesta calculation
#(4) DFT, Grid, SCF
XC.functional         GGA           # LDA or GGA (default = LDA)
XC.authors            PBE           # CA (Ceperley-Aldr) = PZ
                                    #    (Perdew-Zunger) - LDA - Default
                                    # PW92 (Perdew-Wang-92) - LDA
                                    # PBE (Perdew-Burke-Ernzerhof) - GGA
MeshCutoff            200.000000    Ry      # Default: 50.0 Ry ~ 0.444 Bohr
                                    #         100.0 Ry ~ 0.314 Bohr
MaxSCFIterations      500           # Default: 50
DM.MixingWeight       0.05          # Default: 0.25
DM.NumberPulay        10            # Default: 0
DM.PulayOnFile        F             # SystemLabel.P1, SystemLabel.P2
DM.Tolerance          1.d-4         # Default: 1.d-4
DM.UseSaveDM          .true.        # because of the bug
SCFMustConverge       .true.
NeglNonOverlapInt     F             # Default: F
#(5) Eigenvalue problem: order-N or diagonalization
SolutionMethod        Diagon        # or Transiesta
ElectronicTemperature 300.0 K       # Default: 300.0 K
#(6) Molecular dynamics and relaxations
#MD.TypeOfRun          CG            # Type of dynamics:
#MD.VariableCell       F
#MD.NumCGsteps         0           # 0 for single-point / 100 for gopt
#MD.MaxCGDispl         0.2 Bohr      # Default: 0.2 Bohr
#MD.MaxForceTol        0.02 eV/Ang   # Default: 0.04 eV/Ang
#MD.MaxStressTol       1.0 GPa       # Default: 1.0 GPa
# Geometry Constraints
#%block GeometryConstraints
#	position from 1 to 44
#%endblock GeometryConstraints
************************** End of input data file *****************************

reinit: -----------------------------------------------------------------------
reinit: System Name: GRP_doping
reinit: -----------------------------------------------------------------------
reinit: System Label: GRP_doping                                                  
reinit: -----------------------------------------------------------------------

initatom: Reading input for the pseudopotentials and atomic orbitals ----------
 Species number:            1  Label: C Atomic number:           6
 Species number:            2  Label: N Atomic number:           7
Ground state valence configuration:   2s02  2p02
Reading pseudopotential information in formatted form from C.psf

Valence configuration for pseudopotential generation:
2s( 2.00) rc: 1.54
2p( 2.00) rc: 1.54
3d( 0.00) rc: 1.54
4f( 0.00) rc: 1.54
Ground state valence configuration:   2s02  2p03
Reading pseudopotential information in formatted form from N.psf

Valence configuration for pseudopotential generation:
2s( 2.00) rc: 1.48
2p( 3.00) rc: 1.48
3d( 0.00) rc: 1.48
4f( 0.00) rc: 1.48
For C, standard SIESTA heuristics set lmxkb to 3
 (one more than the basis l, including polarization orbitals).
Use PS.lmax or PS.KBprojectors blocks to override.
For N, standard SIESTA heuristics set lmxkb to 3
 (one more than the basis l, including polarization orbitals).
Use PS.lmax or PS.KBprojectors blocks to override.

<basis_specs>
===============================================================================
C                    Z=   6    Mass=  12.010        Charge= 0.17977+309
Lmxo=1 Lmxkb= 3    BasisType=split      Semic=F
L=0  Nsemic=0  Cnfigmx=2
          n=1  nzeta=2  polorb=0
            splnorm:   0.15000    
               vcte:    0.0000    
               rinn:    0.0000    
                rcs:    0.0000      0.0000    
            lambdas:    1.0000      1.0000    
L=1  Nsemic=0  Cnfigmx=2
          n=1  nzeta=2  polorb=1
            splnorm:   0.15000    
               vcte:    0.0000    
               rinn:    0.0000    
                rcs:    0.0000      0.0000    
            lambdas:    1.0000      1.0000    
-------------------------------------------------------------------------------
L=0  Nkbl=1  erefs: 0.17977+309
L=1  Nkbl=1  erefs: 0.17977+309
L=2  Nkbl=1  erefs: 0.17977+309
L=3  Nkbl=1  erefs: 0.17977+309
===============================================================================
</basis_specs>

atom: Called for C                     (Z =   6)

read_vps: Pseudopotential generation method:
read_vps: ATM3      Troullier-Martins                       
Total valence charge:    4.00000

read_vps: Pseudopotential includes a core correction:
read_vps: Pseudo-core for xc-correction

xc_check: Exchange-correlation functional:
xc_check: GGA Perdew, Burke & Ernzerhof 1996
V l=0 = -2*Zval/r beyond r=  1.5227
V l=1 = -2*Zval/r beyond r=  1.5227
V l=2 = -2*Zval/r beyond r=  1.5227
V l=3 = -2*Zval/r beyond r=  1.5038
All V_l potentials equal beyond r=  1.5227
This should be close to max(r_c) in ps generation
All pots = -2*Zval/r beyond r=  1.5227

VLOCAL1: 99.0% of the norm of Vloc inside     18.722 Ry
VLOCAL1: 99.9% of the norm of Vloc inside     42.668 Ry
atom: Maximum radius for 4*pi*r*r*local-pseudopot. charge    1.83678
atom: Maximum radius for r*vlocal+2*Zval:    1.58088
GHOST: No ghost state for L =  0
GHOST: No ghost state for L =  1
GHOST: No ghost state for L =  2
GHOST: No ghost state for L =  3

KBgen: Kleinman-Bylander projectors: 
   l= 0   rc=  1.704034   el= -1.009801   Ekb=  5.335044   kbcos=  0.316824
   l= 1   rc=  1.704034   el= -0.388707   Ekb= -3.785862   kbcos= -0.366464
   l= 2   rc=  1.791422   el=  0.001971   Ekb= -0.970471   kbcos= -0.009212
   l= 3   rc=  1.859892   el=  0.003065   Ekb= -0.399525   kbcos= -0.001223

KBgen: Total number of  Kleinman-Bylander projectors:   16
atom: -------------------------------------------------------------------------

atom: SANKEY-TYPE ORBITALS:
atom: Selected multiple-zeta basis: split     

SPLIT: Orbitals with angular momentum L= 0

SPLIT: Basis orbitals for state 2s

SPLIT: PAO cut-off radius determined from an
SPLIT: energy shift=  0.007350 Ry

   izeta = 1
                 lambda =    1.000000
                     rc =    4.632753
                 energy =   -1.002270
                kinetic =    0.855760
    potential(screened) =   -1.858031
       potential(ionic) =   -5.417575

   izeta = 2
                 rmatch =    3.431921
              splitnorm =    0.150000
                 energy =   -0.867111
                kinetic =    1.300804
    potential(screened) =   -2.167915
       potential(ionic) =   -5.962684

SPLIT: Orbitals with angular momentum L= 1

SPLIT: Basis orbitals for state 2p

SPLIT: PAO cut-off radius determined from an
SPLIT: energy shift=  0.007350 Ry

   izeta = 1
                 lambda =    1.000000
                     rc =    5.658549
                 energy =   -0.381140
                kinetic =    2.399701
    potential(screened) =   -2.780841
       potential(ionic) =   -6.206085

   izeta = 2
                 rmatch =    3.653288
              splitnorm =    0.150000
                 energy =   -0.249149
                kinetic =    3.542762
    potential(screened) =   -3.791911
       potential(ionic) =   -7.581078

POLgen: Perturbative polarization orbital with L=  2

POLgen: Polarization orbital for state 2p

   izeta = 1
                     rc =    5.658549
                 energy =    1.109913
                kinetic =    2.304789
    potential(screened) =   -1.194876
       potential(ionic) =   -4.013592
atom: Total number of Sankey-type orbitals: 13

atm_pop: Valence configuration (for local Pseudopot. screening):
 2s( 2.00)                                                            
 2p( 2.00)                                                            
Vna: chval, zval:    4.00000   4.00000

Vna:  Cut-off radius for the neutral-atom potential:   5.658549
comcore: Pseudo-core radius Rcore=  1.791422

atom: _________________________________________________________________________

<basis_specs>
===============================================================================
N                    Z=   7    Mass=  14.010        Charge= 0.17977+309
Lmxo=1 Lmxkb= 3    BasisType=split      Semic=F
L=0  Nsemic=0  Cnfigmx=2
          n=1  nzeta=2  polorb=0
            splnorm:   0.15000    
               vcte:    0.0000    
               rinn:    0.0000    
                rcs:    0.0000      0.0000    
            lambdas:    1.0000      1.0000    
L=1  Nsemic=0  Cnfigmx=2
          n=1  nzeta=2  polorb=1
            splnorm:   0.15000    
               vcte:    0.0000    
               rinn:    0.0000    
                rcs:    0.0000      0.0000    
            lambdas:    1.0000      1.0000    
-------------------------------------------------------------------------------
L=0  Nkbl=1  erefs: 0.17977+309
L=1  Nkbl=1  erefs: 0.17977+309
L=2  Nkbl=1  erefs: 0.17977+309
L=3  Nkbl=1  erefs: 0.17977+309
===============================================================================
</basis_specs>

atom: Called for N                     (Z =   7)

read_vps: Pseudopotential generation method:
read_vps: ATM3      Troullier-Martins                       
Total valence charge:    5.00000

read_vps: Pseudopotential includes a core correction:
read_vps: Pseudo-core for xc-correction

xc_check: Exchange-correlation functional:
xc_check: GGA Perdew, Burke & Ernzerhof 1996
V l=0 = -2*Zval/r beyond r=  1.4606
V l=1 = -2*Zval/r beyond r=  1.4606
V l=2 = -2*Zval/r beyond r=  1.4606
V l=3 = -2*Zval/r beyond r=  1.4606
All V_l potentials equal beyond r=  1.4606
This should be close to max(r_c) in ps generation
All pots = -2*Zval/r beyond r=  1.4606

VLOCAL1: 99.0% of the norm of Vloc inside     20.347 Ry
VLOCAL1: 99.9% of the norm of Vloc inside     46.372 Ry
atom: Maximum radius for 4*pi*r*r*local-pseudopot. charge    1.76189
atom: Maximum radius for r*vlocal+2*Zval:    1.53550
GHOST: No ghost state for L =  0
GHOST: No ghost state for L =  1
GHOST: No ghost state for L =  2
GHOST: No ghost state for L =  3

KBgen: Kleinman-Bylander projectors: 
   l= 0   rc=  1.634559   el= -1.363963   Ekb=  5.296955   kbcos=  0.335621
   l= 1   rc=  1.614250   el= -0.521451   Ekb= -5.259161   kbcos= -0.433408
   l= 2   rc=  1.718383   el=  0.001991   Ekb= -1.271464   kbcos= -0.007566
   l= 3   rc=  1.761893   el=  0.003093   Ekb= -0.494769   kbcos= -0.001015

KBgen: Total number of  Kleinman-Bylander projectors:   16
atom: -------------------------------------------------------------------------

atom: SANKEY-TYPE ORBITALS:
atom: Selected multiple-zeta basis: split     

SPLIT: Orbitals with angular momentum L= 0

SPLIT: Basis orbitals for state 2s

SPLIT: PAO cut-off radius determined from an
SPLIT: energy shift=  0.007350 Ry

   izeta = 1
                 lambda =    1.000000
                     rc =    4.071465
                 energy =   -1.356470
                kinetic =    1.176977
    potential(screened) =   -2.533447
       potential(ionic) =   -8.057990

   izeta = 2
                 rmatch =    2.905100
              splitnorm =    0.150000
                 energy =   -1.158343
                kinetic =    1.813009
    potential(screened) =   -2.971352
       potential(ionic) =   -8.901931

SPLIT: Orbitals with angular momentum L= 1

SPLIT: Basis orbitals for state 2p

SPLIT: PAO cut-off radius determined from an
SPLIT: energy shift=  0.007350 Ry

   izeta = 1
                 lambda =    1.000000
                     rc =    4.972977
                 energy =   -0.513884
                kinetic =    3.441732
    potential(screened) =   -3.955616
       potential(ionic) =   -9.287901

   izeta = 2
                 rmatch =    3.054066
              splitnorm =    0.150000
                 energy =   -0.318226
                kinetic =    5.125348
    potential(screened) =   -5.443573
       potential(ionic) =  -11.380999

POLgen: Perturbative polarization orbital with L=  2

POLgen: Polarization orbital for state 2p

   izeta = 1
                     rc =    4.972977
                 energy =    1.607437
                kinetic =    3.268125
    potential(screened) =   -1.660688
       potential(ionic) =   -5.973652
atom: Total number of Sankey-type orbitals: 13

atm_pop: Valence configuration (for local Pseudopot. screening):
 2s( 2.00)                                                            
 2p( 3.00)                                                            
Vna: chval, zval:    5.00000   5.00000

Vna:  Cut-off radius for the neutral-atom potential:   4.972977
comcore: Pseudo-core radius Rcore=  1.554824

atom: _________________________________________________________________________

prinput: Basis input ----------------------------------------------------------

PAO.BasisType split     

%block ChemicalSpeciesLabel
    1    6 C                       # Species index, atomic number, species label
    2    7 N                       # Species index, atomic number, species label
%endblock ChemicalSpeciesLabel

%block PAO.Basis                 # Define Basis set
C                     2                    # Species label, number of l-shells
 n=2   0   2                         # n, l, Nzeta 
   4.633      3.432   
   1.000      1.000   
 n=2   1   2 P   1                   # n, l, Nzeta, Polarization, NzetaPol
   5.659      3.653   
   1.000      1.000   
N                     2                    # Species label, number of l-shells
 n=2   0   2                         # n, l, Nzeta 
   4.071      2.905   
   1.000      1.000   
 n=2   1   2 P   1                   # n, l, Nzeta, Polarization, NzetaPol
   4.973      3.054   
   1.000      1.000   
%endblock PAO.Basis

prinput: ----------------------------------------------------------------------

coor:   Atomic-coordinates input format  =     Cartesian coordinates
coor:                                          (in Angstroms)

siesta: Atomic coordinates (Bohr) and species
siesta:      2.23554   1.32097   0.00000  1        1
siesta:      4.56367   2.66461   0.00000  1        2
siesta:     32.50328  21.48508   0.00000  1        3
siesta:     34.83141  22.82873   0.00000  1        4
siesta:     34.83116  17.45226   0.00000  1        5
siesta:     37.15930  18.79590   0.00000  1        6
siesta:     32.50291  13.41944   0.00000  1        7
siesta:     34.83104  14.76308   0.00000  1        8
siesta:     30.17465   9.38661   0.00000  1        9
siesta:     32.50278  10.73026   0.00000  1       10
siesta:     27.84639   5.35379   0.00000  1       11
siesta:     30.17453   6.69743   0.00000  1       12
siesta:     27.84714  21.48508   0.00000  1       13
siesta:     30.17527  22.82873   0.00000  1       14
siesta:      6.89168   1.32097   0.00000  1       15
siesta:      9.21981   2.66461   0.00000  1       16
siesta:     13.87595   2.66461   0.00000  1       17
siesta:     16.20396   1.32097   0.00000  1       18
siesta:     18.53210   2.66461   0.00000  1       19
siesta:     23.19013   2.66461   0.00000  1       20
siesta:     25.51813   1.32097   0.00000  1       21
siesta:     27.84627   2.66461   0.00000  1       22
siesta:      6.89193   6.69743   0.00000  1       23
siesta:      9.21994   5.35379   0.00000  1       24
siesta:     11.54807   6.69743   0.00000  1       25
siesta:     13.87608   5.35379   0.00000  1       26
siesta:     16.20421   6.69743   0.00000  1       27
siesta:     18.53411   5.35379   0.00000  1       28
siesta:     20.86224   6.69743   0.00000  1       29
siesta:     23.19025   5.35379   0.00000  1       30
siesta:     25.51838   6.69743   0.00000  1       31
siesta:      9.22019  10.73026   0.00000  1       32
siesta:     11.54820   9.38661   0.00000  1       33
siesta:     13.87633  10.73026   0.00000  1       34
siesta:     18.53247  10.73026   0.00000  1       35
siesta:     20.86237   9.38661   0.00000  1       36
siesta:     23.19050  10.73026   0.00000  1       37
siesta:      9.22031  13.41944   0.00000  1       38
siesta:     11.54845  14.76308   0.00000  1       39
siesta:     13.87645  13.41944   0.00000  1       40
siesta:     16.20459  14.76308   0.00000  1       41
siesta:     18.53448  13.41944   0.00000  1       42
siesta:     20.86262  14.76308   0.00000  1       43
siesta:     13.87670  18.79590   0.00000  1       44
siesta:     16.20471  17.45226   0.00000  1       45
siesta:     18.53284  18.79590   0.00000  1       46
siesta:     13.87683  21.48508   0.00000  1       47
siesta:     16.20496  22.82873   0.00000  1       48
siesta:     18.53486  21.48508   0.00000  1       49
siesta:     20.86299  22.82873   0.00000  1       50
siesta:     27.84664  10.73026   0.00000  1       51
siesta:     23.19063  13.41944   0.00000  1       52
siesta:     25.51876  14.76308   0.00000  1       53
siesta:     23.19088  18.79590   0.00000  1       54
siesta:     27.84677  13.41944   0.00000  1       55
siesta:     30.17490  14.76308   0.00000  1       56
siesta:     25.51888  17.45226   0.00000  1       57
siesta:     27.84702  18.79590   0.00000  1       58
siesta:     23.19100  21.48508   0.00000  1       59
siesta:     25.51913  22.82873   0.00000  1       60
siesta:     30.17503  17.45226   0.00000  1       61
siesta:     32.50316  18.79590   0.00000  1       62
siesta:     39.48945  22.82873   0.00000  1       63
siesta:     11.54782   1.32097   0.00000  2       64
siesta:     20.86199   1.32097   0.00000  2       65
siesta:      4.56380   5.35379   0.00000  2       66
siesta:      6.89205   9.38661   0.00000  2       67
siesta:     16.20434   9.38661   0.00000  2       68
siesta:     11.54857  17.45226   0.00000  2       69
siesta:     25.51851   9.38661   0.00000  2       70
siesta:     20.86274  17.45226   0.00000  2       71
siesta:     37.16131  21.48508   0.00000  2       72

siesta: System type = slab      

initatomlists: Number of atoms, orbitals, and projectors:     72   936  1152

siesta: ******************** Simulation parameters ****************************
siesta:
siesta: The following are some of the parameters of the simulation.
siesta: A complete list of the parameters used, including default values,
siesta: can be found in file out.fdf
siesta:
redata: Non-Collinear-spin run           =     F
redata: SpinPolarized (Up/Down) run      =     F
redata: Number of spin components        =     1
redata: Long output                      =     F
redata: Number of Atomic Species         =        2
redata: Charge density info will appear in .RHO file
redata: Write Mulliken Pop.              =     NO
redata: Mesh Cutoff                      =   200.0000  Ry
redata: Net charge of the system         =     0.0000 |e|
redata: Max. number of SCF Iter          =      500
redata: SCF convergence failure will abort job
redata: Performing Pulay mixing using    =    10 iterations
redata: Mix DM in first SCF step ?       =     F
redata: Write Pulay info on disk?        =     F
redata: Discard 1st Pulay DM after  kick =     F
redata: New DM Mixing Weight             =     0.0500
redata: New DM Occupancy tolerance       = 0.000000000001
redata: No kicks to SCF
redata: DM Mixing Weight for Kicks       =     0.5000
redata: DM Tolerance for SCF             =     0.000100
redata: Require Energy convergence for SCF =     F
redata: DM Energy tolerance for SCF      =     0.000100 eV
redata: Require Harris convergence for SCF =     F
redata: DM Harris energy tolerance for SCF =     0.000100 eV
redata: Using Saved Data (generic)   =     F
redata: Use continuation files for DM    =     T
redata: Neglect nonoverlap interactions  =     F
redata: Method of Calculation            =     Diagonalization
redata: Divide and Conquer               =     T
redata: Electronic Temperature           =     0.0019  Ry
redata: Fix the spin of the system       =     F
redata: Dynamics option                  =     Verlet MD run
redata: Initial MD time step             =        1
redata:   Final MD time step             =        1
redata: Length of MD time step           =     1.0000  fs
redata: Initial Temperature of MD run    =     0.0000  K
redata: Perform a MD quench              =     F
redata: ***********************************************************************
Total number of electrons:   297.000000
Total ionic charge:   297.000000

* ProcessorY, Blocksize:    2  24

k-point displ. along   1 input, could be:     0.00    0.50
k-point displ. along   2 input, could be:     0.00    0.50
 Kpoints in:          364 . Kpoints trimmed:          352

siesta: k-grid: Number of k-points =   352
siesta: k-grid: Cutoff (effective) =     5.000 Ang
siesta: k-grid: Supercell and displacements
siesta: k-grid:   26   0   0      0.000
siesta: k-grid:    0  26   0      0.000
siesta: k-grid:    0   0   1      0.000
Naive supercell factors:     2    2    2

superc: Internal auxiliary supercell:     2 x     2 x     2  =       8
superc: Number of atoms, orbitals, and projectors:    576   7488   9216

* Maximum dynamic memory allocated =     6 MB

siesta:                 ==============================
                            Begin MD step =      1
                        ==============================

superc: Internal auxiliary supercell:     2 x     2 x     2  =       8
superc: Number of atoms, orbitals, and projectors:    576   7488   9216

outcell: Unit cell vectors (Ang):
       14.785000    0.000000    0.000000
        7.393000   12.805052    0.000000
        0.000000    0.000000   10.000000

outcell: Cell vector modules (Ang)   :   14.785000   14.786000   10.000000
outcell: Cell angles (23,13,12) (deg):     90.0000     90.0000     60.0000
outcell: Cell volume (Ang**3)        :   1893.2269
New_DM. Step:     1
Initializing Density Matrix...

InitMesh: MESH =   120 x   120 x    90 =     1296000
InitMesh: Mesh cutoff (required, used) =   200.000   223.865 Ry

* Maximum dynamic memory allocated =   187 MB

stepf: Fermi-Dirac step function

siesta: Program's energy decomposition (eV):
siesta: Ebs     =     -4703.487240
siesta: Eions   =     19849.732669
siesta: Ena     =      4064.187262
siesta: Ekin    =      7133.479856
siesta: Enl     =       -33.837110
siesta: DEna    =        -0.000012
siesta: DUscf   =         0.000000
siesta: DUext   =         0.000000
siesta: Exc     =     -4161.730452
siesta: eta*DQ  =         0.000000
siesta: Emadel  =         0.000000
siesta: Emeta   =         0.000000
siesta: Emolmec =         0.000000
siesta: Ekinion =         0.000000
siesta: Eharris =    -12754.864379
siesta: Etot    =    -12847.633125
siesta: FreeEng =    -12847.633125

siesta: iscf   Eharris(eV)      E_KS(eV)   FreeEng(eV)   dDmax  Ef(eV)
siesta:    1   -12754.8644   -12847.6331   -12847.6331  1.9445 -4.8116
timer: Routine,Calls,Time,% = IterSCF        1    6653.494  99.83
elaps: Routine,Calls,Wall,% = IterSCF        1     833.034  99.87
siesta:    2   -12779.6546   -12724.2123   -12724.2476  0.5497 -3.2773
siesta:    3   -12755.6303   -12744.6635   -12744.6806  0.4443 -3.3999
siesta:    4   -12743.7314   -12742.6048   -12742.6238  0.2389 -3.2196
siesta:    5   -12741.2464   -12740.5009   -12740.5326  0.1497 -3.1643
siesta:    6   -12739.7275   -12738.8465   -12738.8881  0.0918 -3.1503
siesta:    7   -12739.9425   -12737.9337   -12737.9755  0.0708 -3.1959
siesta:    8   -12739.6557   -12737.6388   -12737.6752  0.0489 -3.3663
siesta:    9   -12739.5600   -12737.6505   -12737.6865  0.0348 -3.4018
siesta:   10   -12739.4316   -12737.9718   -12738.0094  0.0158 -3.4247
siesta:   11   -12739.3969   -12738.2105   -12738.2515  0.0099 -3.4250
siesta:   12   -12739.3883   -12738.3829   -12738.4232  0.0065 -3.4263
siesta:   13   -12739.3867   -12738.6488   -12738.6897  0.0050 -3.4280
siesta:   14   -12739.3862   -12738.8419   -12738.8826  0.0040 -3.4276
siesta:   15   -12739.3859   -12739.0700   -12739.1108  0.0019 -3.4224
siesta:   16   -12739.3860   -12739.1847   -12739.2256  0.0009 -3.4212
siesta:   17   -12739.3859   -12739.2907   -12739.3315  0.0010 -3.4210
siesta:   18   -12739.3857   -12739.3777   -12739.4184  0.0004 -3.4204
siesta:   19   -12739.3857   -12739.3834   -12739.4242  0.0004 -3.4204
siesta:   20   -12739.3857   -12739.3881   -12739.4289  0.0003 -3.4203
siesta:   21   -12739.3857   -12739.3892   -12739.4300  0.0002 -3.4202
siesta:   22   -12739.3857   -12739.3898   -12739.4306  0.0001 -3.4203
siesta:   23   -12739.3857   -12739.3882   -12739.4290  0.0001 -3.4204
siesta:   24   -12739.3857   -12739.3883   -12739.4291  0.0001 -3.4204

siesta: E_KS(eV) =           -12739.3875

siesta: E_KS - E_eggbox =    -12739.3875

siesta: Atomic forces (eV/Ang):
----------------------------------------
   Tot    0.179229   -0.336965    0.000000
----------------------------------------
   Max    1.131630
   Res    0.301228    sqrt( Sum f_i^2 / 3N )
----------------------------------------
   Max    1.131630    constrained

Stress-tensor-Voigt (kbar):        0.26        1.04        0.15        0.00        0.00        0.00
(Free)E + p*V (eV/cell)   -12739.9987
Target enthalpy (eV/cell)   -12739.4283

siesta: Stress tensor (static) (eV/Ang**3):
         0.000165    0.000000    0.000000
         0.000000    0.000647    0.000000
         0.000000    0.000000    0.000091

siesta: Pressure (static):         -0.48274931  kBar

siesta: Stress tensor (total) (eV/Ang**3):
         0.000165    0.000000    0.000000
         0.000000    0.000647    0.000000
         0.000000    0.000000    0.000091

siesta: Pressure (total):         -0.48274931  kBar

siesta: Temp_ion =       0.000 K

* Maximum dynamic memory allocated =   203 MB

siesta: Program's energy decomposition (eV):
siesta: Ebs     =     -4186.275694
siesta: Eions   =     19849.732669
siesta: Ena     =      4064.187262
siesta: Ekin    =      8580.079992
siesta: Enl     =     -1058.833996
siesta: DEna    =      -247.282168
siesta: DUscf   =        22.442849
siesta: DUext   =         0.000000
siesta: Exc     =     -4250.248738
siesta: eta*DQ  =         0.000000
siesta: Emadel  =         0.000000
siesta: Emeta   =         0.000000
siesta: Emolmec =         0.000000
siesta: Ekinion =         0.000000
siesta: Eharris =    -12739.385681
siesta: Etot    =    -12739.387467
siesta: FreeEng =    -12739.428271

siesta: Final energy (eV):
siesta:  Band Struct. =   -4186.275694
siesta:       Kinetic =    8580.079992
siesta:       Hartree =   24800.782932
siesta:    Ext. field =       0.000000
siesta:   Exch.-corr. =   -4250.248738
siesta:  Ion-electron =  -57579.258757
siesta:       Ion-ion =   15709.257104
siesta:       Ekinion =       0.000000
siesta:         Total =  -12739.387467

siesta: Atomic forces (eV/Ang):
siesta:      1    0.392690    0.473160    0.000000
siesta:      2   -0.065616    0.448154    0.000000
siesta:      3    0.201160    0.474848    0.000000
siesta:      4    0.557780    0.389353    0.000000
siesta:      5    0.620286   -0.090519    0.000000
siesta:      6    0.506060    0.305468    0.000000
siesta:      7    0.602724   -0.498526    0.000000
siesta:      8   -0.288580    0.435102    0.000000
siesta:      9    0.310241   -0.038675    0.000000
siesta:     10    0.196478    0.190368    0.000000
siesta:     11    0.636626    0.612897    0.000000
siesta:     12    0.305153   -1.078829    0.000000
siesta:     13    0.124835    0.554595    0.000000
siesta:     14    0.187834   -0.398802    0.000000
siesta:     15    0.422595   -0.020367    0.000000
siesta:     16    0.674346   -0.500139    0.000000
siesta:     17   -0.033272   -0.479564    0.000000
siesta:     18   -0.079490    0.164429    0.000000
siesta:     19    0.036850   -0.444323    0.000000
siesta:     20   -0.442073    0.264333    0.000000
siesta:     21   -0.470283   -0.725342    0.000000
siesta:     22   -0.576125   -0.238817    0.000000
siesta:     23   -0.591209   -0.127595    0.000000
siesta:     24   -0.206560    0.125241    0.000000
siesta:     25   -0.122928    0.060376    0.000000
siesta:     26   -0.148748    0.335634    0.000000
siesta:     27   -0.122636   -0.011210    0.000000
siesta:     28    0.340883    0.270694    0.000000
siesta:     29   -0.081698    0.094358    0.000000
siesta:     30   -0.188563   -0.226844    0.000000
siesta:     31    0.124301    0.575737    0.000000
siesta:     32   -0.219733    0.097151    0.000000
siesta:     33    0.238149   -0.222284    0.000000
siesta:     34   -0.012183   -0.140317    0.000000
siesta:     35    0.024741   -0.062359    0.000000
siesta:     36   -0.243009   -0.379279    0.000000
siesta:     37    0.517071    0.065831    0.000000
siesta:     38    0.117157   -0.249623    0.000000
siesta:     39   -0.349099    0.224978    0.000000
siesta:     40    0.391224    0.161254    0.000000
siesta:     41    0.133454   -0.126810    0.000000
siesta:     42   -0.490087    0.074727    0.000000
siesta:     43    0.310044    0.383440    0.000000
siesta:     44    0.189554   -0.269622    0.000000
siesta:     45   -0.321679   -0.146230    0.000000
siesta:     46    0.615280   -0.208286    0.000000
siesta:     47   -1.131630   -0.309704    0.000000
siesta:     48    0.094741   -0.042592    0.000000
siesta:     49    0.530596   -0.300324    0.000000
siesta:     50   -0.688894    0.379829    0.000000
siesta:     51   -0.482313   -0.708808    0.000000
siesta:     52   -0.111720   -0.059391    0.000000
siesta:     53    0.467065    0.122468    0.000000
siesta:     54   -0.562311   -0.131930    0.000000
siesta:     55   -0.530961    0.059868    0.000000
siesta:     56   -0.133484   -0.244141    0.000000
siesta:     57   -0.296781   -0.383063    0.000000
siesta:     58   -0.381093    0.140987    0.000000
siesta:     59    0.155486   -0.089878    0.000000
siesta:     60    0.009562    0.481296    0.000000
siesta:     61    0.262620    0.030395    0.000000
siesta:     62   -0.065917    0.053554    0.000000
siesta:     63    0.167751    0.111909    0.000000
siesta:     64   -0.262322    0.147234    0.000000
siesta:     65    0.405734   -0.695288    0.000000
siesta:     66    0.182703    1.008042    0.000000
siesta:     67   -0.272034   -0.563911    0.000000
siesta:     68    0.020404    0.069954    0.000000
siesta:     69   -0.450663    0.533210    0.000000
siesta:     70   -0.048939    0.169011    0.000000
siesta:     71   -0.104248   -0.057048    0.000000
siesta:     72   -0.318066   -0.156412    0.000000
siesta: ----------------------------------------
siesta:    Tot    0.179229   -0.336965    0.000000

siesta: Stress tensor (static) (eV/Ang**3):
siesta:     0.000165    0.000000    0.000000
siesta:     0.000000    0.000647    0.000000
siesta:     0.000000    0.000000    0.000091

siesta: Cell volume =       1893.226895 Ang**3

siesta: Pressure (static):
siesta:                Solid            Molecule  Units
siesta:          -0.00000328         -0.00005614  Ry/Bohr**3
siesta:          -0.00030131         -0.00515459  eV/Ang**3
siesta:          -0.48274931         -8.25865112  kBar
(Free)E+ p_basis*V_orbitals  =      -12709.977325
(Free)Eharris+ p_basis*V_orbitals  =      -12709.974685

siesta: Electric dipole (a.u.)  =    0.000000    0.000000    0.000000
siesta: Electric dipole (Debye) =    0.000000    0.000000    0.000000

* Maximum dynamic memory allocated : Node    0 =   203 MB
* Maximum dynamic memory allocated : Node    1 =    74 MB
* Maximum dynamic memory allocated : Node    2 =    76 MB
* Maximum dynamic memory allocated : Node    3 =   192 MB
* Maximum dynamic memory allocated : Node    4 =   203 MB
* Maximum dynamic memory allocated : Node    5 =    74 MB
* Maximum dynamic memory allocated : Node    6 =    75 MB
* Maximum dynamic memory allocated : Node    7 =   187 MB

* Maximum memory occured during matrixMtoO                    

timer: CPU execution times:
timer:  Routine       Calls   Time/call    Tot.time        %
timer:  siesta            1  158270.498  158270.498   100.00
timer:  Setup             1       3.775       3.775     0.00
timer:  bands             1       0.018       0.018     0.00
timer:  writewave         1       0.041       0.041     0.00
timer:  KSV_init          1       0.005       0.005     0.00
timer:  IterMD            1  158258.852  158258.852    99.99
timer:  hsparse           1       0.259       0.259     0.00
timer:  overlap           1       6.340       6.340     0.00
timer:  IterSCF          24    6587.247  158093.936    99.89
timer:  kinefsm           2       3.259       6.518     0.00
timer:  nlefsm            2      18.811      37.621     0.02
timer:  DHSCF            25      87.495    2187.381     1.38
timer:  DHSCF1            1       0.762       0.762     0.00
timer:  DHSCF2            1      33.158      33.158     0.02
timer:  REORD           202       0.010       1.981     0.00
timer:  POISON           26       2.250      58.494     0.04
timer:  DHSCF3           25      84.850    2121.245     1.34
timer:  rhoofd           25      16.176     404.391     0.26
timer:  cellXC           25       3.498      87.445     0.06
timer:  vmat             25      43.265    1081.613     0.68
timer:  MolMec            2       0.000       0.000     0.00
timer:  diagon           24    6497.911  155949.853    98.53
timer:  c-eigval       8448       6.688   56496.471    35.70
timer:  c-buildHS      8448       0.117     992.231     0.63
timer:  cdiag         16896       6.897  116533.508    73.63
timer:  cdiag1        16896       0.427    7220.161     4.56
timer:  cdiag2        16896       1.911   32290.345    20.40
timer:  cdiag3        16896       3.958   66867.396    42.25
timer:  cdiag4        16896       0.203    3431.963     2.17
timer:  c-eigvec       8448       7.296   61636.959    38.94
timer:  c-buildD       8448       4.468   37747.093    23.85
timer:  DHSCF4            1      30.848      30.848     0.02
timer:  dfscf             1      29.023      29.023     0.02
timer:  overfsm           1       0.373       0.373     0.00
timer:  optical           1       6.928       6.928     0.00
  

elaps: ELAPSED times:
elaps:  Routine       Calls   Time/call    Tot.time        %
elaps:  siesta            1   19813.124   19813.124   100.00
elaps:  Setup             1       0.487       0.487     0.00
elaps:  bands             1       0.002       0.002     0.00
elaps:  writewave         1       0.005       0.005     0.00
elaps:  KSV_init          1       0.001       0.001     0.00
elaps:  IterMD            1   19811.644   19811.644    99.99
elaps:  hsparse           1       0.032       0.032     0.00
elaps:  overlap           1       0.526       0.526     0.00
elaps:  IterSCF          24     824.644   19791.461    99.89
elaps:  kinefsm           2       0.273       0.547     0.00
elaps:  nlefsm            2       2.422       4.844     0.02
elaps:  DHSCF            25      11.072     276.794     1.40
elaps:  DHSCF1            1       0.097       0.097     0.00
elaps:  DHSCF2            1       4.147       4.147     0.02
elaps:  REORD           202       0.001       0.267     0.00
elaps:  POISON           26       0.281       7.316     0.04
elaps:  DHSCF3           25      10.615     265.381     1.34
elaps:  rhoofd           25       3.528      88.207     0.45
elaps:  cellXC           25       0.437      10.919     0.06
elaps:  vmat             25       5.412     135.304     0.68
elaps:  MolMec            2       0.000       0.000     0.00
elaps:  diagon           24     813.464   19523.146    98.54
elaps:  c-eigval       8448       0.837    7069.016    35.68
elaps:  c-buildHS      8448       0.016     135.589     0.68
elaps:  cdiag         16896       0.846   14300.094    72.17
elaps:  cdiag1        16896       0.053     896.154     4.52
elaps:  cdiag2        16896       0.239    4040.922    20.40
elaps:  cdiag3        16896       0.496    8377.387    42.28
elaps:  cdiag4        16896       0.026     435.815     2.20
elaps:  c-eigvec       8448       0.883    7461.378    37.66
elaps:  c-buildD       8448       0.583    4926.143    24.86
elaps:  DHSCF4            1       6.986       6.986     0.04
elaps:  dfscf             1       6.606       6.606     0.03
elaps:  overfsm           1       0.048       0.048     0.00
elaps:  optical           1       0.001       0.001     0.00
  
>> End of run:   1-DEC-2015   7:31:59
