Siesta Version:                                        siesta-3.2-pl-3
Architecture  : x86_64-unknown-linux-gnu--unknown
Compiler flags: mpiifort -g -O2 -fPIC -xSSE4.1 -fp-model source -shared-intel 
PARALLEL version

* Running on    8 nodes in parallel
>> Start of run:   5-DEC-2015   6:21:32

                           ***********************       
                           *  WELCOME TO SIESTA  *       
                           ***********************       

reinit: Reading from standard input
************************** Dump of input data file ****************************
#(1) General system descriptors
SystemName            GRP_doping    # Descriptive name of the system
SystemLabel           GRP_doping    # Short name for naming files
%include STRUCT.fdf
%include KPT.fdf
%include BASIS.fdf
#%include TS.fdf # for transiesta calculation
#(4) DFT, Grid, SCF
XC.functional         GGA           # LDA or GGA (default = LDA)
XC.authors            PBE           # CA (Ceperley-Aldr) = PZ
                                    #    (Perdew-Zunger) - LDA - Default
                                    # PW92 (Perdew-Wang-92) - LDA
                                    # PBE (Perdew-Burke-Ernzerhof) - GGA
MeshCutoff            200.000000    Ry      # Default: 50.0 Ry ~ 0.444 Bohr
                                    #         100.0 Ry ~ 0.314 Bohr
MaxSCFIterations      500           # Default: 50
DM.MixingWeight       0.05          # Default: 0.25
DM.NumberPulay        10            # Default: 0
DM.PulayOnFile        F             # SystemLabel.P1, SystemLabel.P2
DM.Tolerance          1.d-4         # Default: 1.d-4
DM.UseSaveDM          .true.        # because of the bug
SCFMustConverge       .true.
NeglNonOverlapInt     F             # Default: F
#(5) Eigenvalue problem: order-N or diagonalization
SolutionMethod        Diagon        # or Transiesta
ElectronicTemperature 300.0 K       # Default: 300.0 K
#(6) Molecular dynamics and relaxations
#MD.TypeOfRun          CG            # Type of dynamics:
#MD.VariableCell       F
#MD.NumCGsteps         0           # 0 for single-point / 100 for gopt
#MD.MaxCGDispl         0.2 Bohr      # Default: 0.2 Bohr
#MD.MaxForceTol        0.02 eV/Ang   # Default: 0.04 eV/Ang
#MD.MaxStressTol       1.0 GPa       # Default: 1.0 GPa
# Geometry Constraints
#%block GeometryConstraints
#	position from 1 to 44
#%endblock GeometryConstraints
************************** End of input data file *****************************

reinit: -----------------------------------------------------------------------
reinit: System Name: GRP_doping
reinit: -----------------------------------------------------------------------
reinit: System Label: GRP_doping                                                  
reinit: -----------------------------------------------------------------------

initatom: Reading input for the pseudopotentials and atomic orbitals ----------
 Species number:            1  Label: N Atomic number:           7
 Species number:            2  Label: C Atomic number:           6
Ground state valence configuration:   2s02  2p03
Reading pseudopotential information in formatted form from N.psf

Valence configuration for pseudopotential generation:
2s( 2.00) rc: 1.48
2p( 3.00) rc: 1.48
3d( 0.00) rc: 1.48
4f( 0.00) rc: 1.48
Ground state valence configuration:   2s02  2p02
Reading pseudopotential information in formatted form from C.psf

Valence configuration for pseudopotential generation:
2s( 2.00) rc: 1.54
2p( 2.00) rc: 1.54
3d( 0.00) rc: 1.54
4f( 0.00) rc: 1.54
For N, standard SIESTA heuristics set lmxkb to 3
 (one more than the basis l, including polarization orbitals).
Use PS.lmax or PS.KBprojectors blocks to override.
For C, standard SIESTA heuristics set lmxkb to 3
 (one more than the basis l, including polarization orbitals).
Use PS.lmax or PS.KBprojectors blocks to override.

<basis_specs>
===============================================================================
N                    Z=   7    Mass=  14.010        Charge= 0.17977+309
Lmxo=1 Lmxkb= 3    BasisType=split      Semic=F
L=0  Nsemic=0  Cnfigmx=2
          n=1  nzeta=2  polorb=0
            splnorm:   0.15000    
               vcte:    0.0000    
               rinn:    0.0000    
                rcs:    0.0000      0.0000    
            lambdas:    1.0000      1.0000    
L=1  Nsemic=0  Cnfigmx=2
          n=1  nzeta=2  polorb=1
            splnorm:   0.15000    
               vcte:    0.0000    
               rinn:    0.0000    
                rcs:    0.0000      0.0000    
            lambdas:    1.0000      1.0000    
-------------------------------------------------------------------------------
L=0  Nkbl=1  erefs: 0.17977+309
L=1  Nkbl=1  erefs: 0.17977+309
L=2  Nkbl=1  erefs: 0.17977+309
L=3  Nkbl=1  erefs: 0.17977+309
===============================================================================
</basis_specs>

atom: Called for N                     (Z =   7)

read_vps: Pseudopotential generation method:
read_vps: ATM3      Troullier-Martins                       
Total valence charge:    5.00000

read_vps: Pseudopotential includes a core correction:
read_vps: Pseudo-core for xc-correction

xc_check: Exchange-correlation functional:
xc_check: GGA Perdew, Burke & Ernzerhof 1996
V l=0 = -2*Zval/r beyond r=  1.4606
V l=1 = -2*Zval/r beyond r=  1.4606
V l=2 = -2*Zval/r beyond r=  1.4606
V l=3 = -2*Zval/r beyond r=  1.4606
All V_l potentials equal beyond r=  1.4606
This should be close to max(r_c) in ps generation
All pots = -2*Zval/r beyond r=  1.4606

VLOCAL1: 99.0% of the norm of Vloc inside     20.347 Ry
VLOCAL1: 99.9% of the norm of Vloc inside     46.372 Ry
atom: Maximum radius for 4*pi*r*r*local-pseudopot. charge    1.76189
atom: Maximum radius for r*vlocal+2*Zval:    1.53550
GHOST: No ghost state for L =  0
GHOST: No ghost state for L =  1
GHOST: No ghost state for L =  2
GHOST: No ghost state for L =  3

KBgen: Kleinman-Bylander projectors: 
   l= 0   rc=  1.634559   el= -1.363963   Ekb=  5.296955   kbcos=  0.335621
   l= 1   rc=  1.614250   el= -0.521451   Ekb= -5.259161   kbcos= -0.433408
   l= 2   rc=  1.718383   el=  0.001991   Ekb= -1.271464   kbcos= -0.007566
   l= 3   rc=  1.761893   el=  0.003093   Ekb= -0.494769   kbcos= -0.001015

KBgen: Total number of  Kleinman-Bylander projectors:   16
atom: -------------------------------------------------------------------------

atom: SANKEY-TYPE ORBITALS:
atom: Selected multiple-zeta basis: split     

SPLIT: Orbitals with angular momentum L= 0

SPLIT: Basis orbitals for state 2s

SPLIT: PAO cut-off radius determined from an
SPLIT: energy shift=  0.007350 Ry

   izeta = 1
                 lambda =    1.000000
                     rc =    4.071465
                 energy =   -1.356470
                kinetic =    1.176977
    potential(screened) =   -2.533447
       potential(ionic) =   -8.057990

   izeta = 2
                 rmatch =    2.905100
              splitnorm =    0.150000
                 energy =   -1.158343
                kinetic =    1.813009
    potential(screened) =   -2.971352
       potential(ionic) =   -8.901931

SPLIT: Orbitals with angular momentum L= 1

SPLIT: Basis orbitals for state 2p

SPLIT: PAO cut-off radius determined from an
SPLIT: energy shift=  0.007350 Ry

   izeta = 1
                 lambda =    1.000000
                     rc =    4.972977
                 energy =   -0.513884
                kinetic =    3.441732
    potential(screened) =   -3.955616
       potential(ionic) =   -9.287901

   izeta = 2
                 rmatch =    3.054066
              splitnorm =    0.150000
                 energy =   -0.318226
                kinetic =    5.125348
    potential(screened) =   -5.443573
       potential(ionic) =  -11.380999

POLgen: Perturbative polarization orbital with L=  2

POLgen: Polarization orbital for state 2p

   izeta = 1
                     rc =    4.972977
                 energy =    1.607437
                kinetic =    3.268125
    potential(screened) =   -1.660688
       potential(ionic) =   -5.973652
atom: Total number of Sankey-type orbitals: 13

atm_pop: Valence configuration (for local Pseudopot. screening):
 2s( 2.00)                                                            
 2p( 3.00)                                                            
Vna: chval, zval:    5.00000   5.00000

Vna:  Cut-off radius for the neutral-atom potential:   4.972977
comcore: Pseudo-core radius Rcore=  1.554824

atom: _________________________________________________________________________

<basis_specs>
===============================================================================
C                    Z=   6    Mass=  12.010        Charge= 0.17977+309
Lmxo=1 Lmxkb= 3    BasisType=split      Semic=F
L=0  Nsemic=0  Cnfigmx=2
          n=1  nzeta=2  polorb=0
            splnorm:   0.15000    
               vcte:    0.0000    
               rinn:    0.0000    
                rcs:    0.0000      0.0000    
            lambdas:    1.0000      1.0000    
L=1  Nsemic=0  Cnfigmx=2
          n=1  nzeta=2  polorb=1
            splnorm:   0.15000    
               vcte:    0.0000    
               rinn:    0.0000    
                rcs:    0.0000      0.0000    
            lambdas:    1.0000      1.0000    
-------------------------------------------------------------------------------
L=0  Nkbl=1  erefs: 0.17977+309
L=1  Nkbl=1  erefs: 0.17977+309
L=2  Nkbl=1  erefs: 0.17977+309
L=3  Nkbl=1  erefs: 0.17977+309
===============================================================================
</basis_specs>

atom: Called for C                     (Z =   6)

read_vps: Pseudopotential generation method:
read_vps: ATM3      Troullier-Martins                       
Total valence charge:    4.00000

read_vps: Pseudopotential includes a core correction:
read_vps: Pseudo-core for xc-correction

xc_check: Exchange-correlation functional:
xc_check: GGA Perdew, Burke & Ernzerhof 1996
V l=0 = -2*Zval/r beyond r=  1.5227
V l=1 = -2*Zval/r beyond r=  1.5227
V l=2 = -2*Zval/r beyond r=  1.5227
V l=3 = -2*Zval/r beyond r=  1.5038
All V_l potentials equal beyond r=  1.5227
This should be close to max(r_c) in ps generation
All pots = -2*Zval/r beyond r=  1.5227

VLOCAL1: 99.0% of the norm of Vloc inside     18.722 Ry
VLOCAL1: 99.9% of the norm of Vloc inside     42.668 Ry
atom: Maximum radius for 4*pi*r*r*local-pseudopot. charge    1.83678
atom: Maximum radius for r*vlocal+2*Zval:    1.58088
GHOST: No ghost state for L =  0
GHOST: No ghost state for L =  1
GHOST: No ghost state for L =  2
GHOST: No ghost state for L =  3

KBgen: Kleinman-Bylander projectors: 
   l= 0   rc=  1.704034   el= -1.009801   Ekb=  5.335044   kbcos=  0.316824
   l= 1   rc=  1.704034   el= -0.388707   Ekb= -3.785862   kbcos= -0.366464
   l= 2   rc=  1.791422   el=  0.001971   Ekb= -0.970471   kbcos= -0.009212
   l= 3   rc=  1.859892   el=  0.003065   Ekb= -0.399525   kbcos= -0.001223

KBgen: Total number of  Kleinman-Bylander projectors:   16
atom: -------------------------------------------------------------------------

atom: SANKEY-TYPE ORBITALS:
atom: Selected multiple-zeta basis: split     

SPLIT: Orbitals with angular momentum L= 0

SPLIT: Basis orbitals for state 2s

SPLIT: PAO cut-off radius determined from an
SPLIT: energy shift=  0.007350 Ry

   izeta = 1
                 lambda =    1.000000
                     rc =    4.632753
                 energy =   -1.002270
                kinetic =    0.855760
    potential(screened) =   -1.858031
       potential(ionic) =   -5.417575

   izeta = 2
                 rmatch =    3.431921
              splitnorm =    0.150000
                 energy =   -0.867111
                kinetic =    1.300804
    potential(screened) =   -2.167915
       potential(ionic) =   -5.962684

SPLIT: Orbitals with angular momentum L= 1

SPLIT: Basis orbitals for state 2p

SPLIT: PAO cut-off radius determined from an
SPLIT: energy shift=  0.007350 Ry

   izeta = 1
                 lambda =    1.000000
                     rc =    5.658549
                 energy =   -0.381140
                kinetic =    2.399701
    potential(screened) =   -2.780841
       potential(ionic) =   -6.206085

   izeta = 2
                 rmatch =    3.653288
              splitnorm =    0.150000
                 energy =   -0.249149
                kinetic =    3.542762
    potential(screened) =   -3.791911
       potential(ionic) =   -7.581078

POLgen: Perturbative polarization orbital with L=  2

POLgen: Polarization orbital for state 2p

   izeta = 1
                     rc =    5.658549
                 energy =    1.109913
                kinetic =    2.304789
    potential(screened) =   -1.194876
       potential(ionic) =   -4.013592
atom: Total number of Sankey-type orbitals: 13

atm_pop: Valence configuration (for local Pseudopot. screening):
 2s( 2.00)                                                            
 2p( 2.00)                                                            
Vna: chval, zval:    4.00000   4.00000

Vna:  Cut-off radius for the neutral-atom potential:   5.658549
comcore: Pseudo-core radius Rcore=  1.791422

atom: _________________________________________________________________________

prinput: Basis input ----------------------------------------------------------

PAO.BasisType split     

%block ChemicalSpeciesLabel
    1    7 N                       # Species index, atomic number, species label
    2    6 C                       # Species index, atomic number, species label
%endblock ChemicalSpeciesLabel

%block PAO.Basis                 # Define Basis set
N                     2                    # Species label, number of l-shells
 n=2   0   2                         # n, l, Nzeta 
   4.071      2.905   
   1.000      1.000   
 n=2   1   2 P   1                   # n, l, Nzeta, Polarization, NzetaPol
   4.973      3.054   
   1.000      1.000   
C                     2                    # Species label, number of l-shells
 n=2   0   2                         # n, l, Nzeta 
   4.633      3.432   
   1.000      1.000   
 n=2   1   2 P   1                   # n, l, Nzeta, Polarization, NzetaPol
   5.659      3.653   
   1.000      1.000   
%endblock PAO.Basis

prinput: ----------------------------------------------------------------------

coor:   Atomic-coordinates input format  =     Cartesian coordinates
coor:                                          (in Angstroms)

siesta: Atomic coordinates (Bohr) and species
siesta:      2.23554   1.32097   0.00000  1        1
siesta:     32.50328  21.48508   0.00000  1        2
siesta:     34.83116  17.45226   0.00000  1        3
siesta:     30.17465   9.38661   0.00000  1        4
siesta:      6.89168   1.32097   0.00000  1        5
siesta:     11.54782   1.32097   0.00000  1        6
siesta:     16.20396   1.32097   0.00000  1        7
siesta:     20.86199   1.32097   0.00000  1        8
siesta:     25.51813   1.32097   0.00000  1        9
siesta:      4.56380   5.35379   0.00000  1       10
siesta:     13.87608   5.35379   0.00000  1       11
siesta:     23.19025   5.35379   0.00000  1       12
siesta:      6.89205   9.38661   0.00000  1       13
siesta:     11.54820   9.38661   0.00000  1       14
siesta:     16.20434   9.38661   0.00000  1       15
siesta:     20.86237   9.38661   0.00000  1       16
siesta:      9.22031  13.41944   0.00000  1       17
siesta:     18.53448  13.41944   0.00000  1       18
siesta:     11.54857  17.45226   0.00000  1       19
siesta:     16.20471  17.45226   0.00000  1       20
siesta:     13.87683  21.48508   0.00000  1       21
siesta:     25.51851   9.38661   0.00000  1       22
siesta:     20.86274  17.45226   0.00000  1       23
siesta:     27.84677  13.41944   0.00000  1       24
siesta:     25.51888  17.45226   0.00000  1       25
siesta:     23.19100  21.48508   0.00000  1       26
siesta:     30.17503  17.45226   0.00000  1       27
siesta:      4.56367   2.66461   0.00000  2       28
siesta:     34.83141  22.82873   0.00000  2       29
siesta:     37.15930  18.79590   0.00000  2       30
siesta:     32.50291  13.41944   0.00000  2       31
siesta:     34.83104  14.76308   0.00000  2       32
siesta:     32.50278  10.73026   0.00000  2       33
siesta:     27.84639   5.35379   0.00000  2       34
siesta:     30.17453   6.69743   0.00000  2       35
siesta:     27.84714  21.48508   0.00000  2       36
siesta:     30.17527  22.82873   0.00000  2       37
siesta:      9.21981   2.66461   0.00000  2       38
siesta:     13.87595   2.66461   0.00000  2       39
siesta:     18.53210   2.66461   0.00000  2       40
siesta:     23.19013   2.66461   0.00000  2       41
siesta:     27.84627   2.66461   0.00000  2       42
siesta:      6.89193   6.69743   0.00000  2       43
siesta:      9.21994   5.35379   0.00000  2       44
siesta:     11.54807   6.69743   0.00000  2       45
siesta:     16.20421   6.69743   0.00000  2       46
siesta:     18.53411   5.35379   0.00000  2       47
siesta:     20.86224   6.69743   0.00000  2       48
siesta:     25.51838   6.69743   0.00000  2       49
siesta:      9.22019  10.73026   0.00000  2       50
siesta:     13.87633  10.73026   0.00000  2       51
siesta:     18.53247  10.73026   0.00000  2       52
siesta:     23.19050  10.73026   0.00000  2       53
siesta:     11.54845  14.76308   0.00000  2       54
siesta:     13.87645  13.41944   0.00000  2       55
siesta:     16.20459  14.76308   0.00000  2       56
siesta:     20.86262  14.76308   0.00000  2       57
siesta:     13.87670  18.79590   0.00000  2       58
siesta:     18.53284  18.79590   0.00000  2       59
siesta:     16.20496  22.82873   0.00000  2       60
siesta:     18.53486  21.48508   0.00000  2       61
siesta:     20.86299  22.82873   0.00000  2       62
siesta:     27.84664  10.73026   0.00000  2       63
siesta:     23.19063  13.41944   0.00000  2       64
siesta:     25.51876  14.76308   0.00000  2       65
siesta:     23.19088  18.79590   0.00000  2       66
siesta:     30.17490  14.76308   0.00000  2       67
siesta:     27.84702  18.79590   0.00000  2       68
siesta:     25.51913  22.82873   0.00000  2       69
siesta:     32.50316  18.79590   0.00000  2       70
siesta:     37.16131  21.48508   0.00000  2       71
siesta:     39.48945  22.82873   0.00000  2       72

siesta: System type = slab      

initatomlists: Number of atoms, orbitals, and projectors:     72   936  1152

siesta: ******************** Simulation parameters ****************************
siesta:
siesta: The following are some of the parameters of the simulation.
siesta: A complete list of the parameters used, including default values,
siesta: can be found in file out.fdf
siesta:
redata: Non-Collinear-spin run           =     F
redata: SpinPolarized (Up/Down) run      =     F
redata: Number of spin components        =     1
redata: Long output                      =     F
redata: Number of Atomic Species         =        2
redata: Charge density info will appear in .RHO file
redata: Write Mulliken Pop.              =     NO
redata: Mesh Cutoff                      =   200.0000  Ry
redata: Net charge of the system         =     0.0000 |e|
redata: Max. number of SCF Iter          =      500
redata: SCF convergence failure will abort job
redata: Performing Pulay mixing using    =    10 iterations
redata: Mix DM in first SCF step ?       =     F
redata: Write Pulay info on disk?        =     F
redata: Discard 1st Pulay DM after  kick =     F
redata: New DM Mixing Weight             =     0.0500
redata: New DM Occupancy tolerance       = 0.000000000001
redata: No kicks to SCF
redata: DM Mixing Weight for Kicks       =     0.5000
redata: DM Tolerance for SCF             =     0.000100
redata: Require Energy convergence for SCF =     F
redata: DM Energy tolerance for SCF      =     0.000100 eV
redata: Require Harris convergence for SCF =     F
redata: DM Harris energy tolerance for SCF =     0.000100 eV
redata: Using Saved Data (generic)   =     F
redata: Use continuation files for DM    =     T
redata: Neglect nonoverlap interactions  =     F
redata: Method of Calculation            =     Diagonalization
redata: Divide and Conquer               =     T
redata: Electronic Temperature           =     0.0019  Ry
redata: Fix the spin of the system       =     F
redata: Dynamics option                  =     Verlet MD run
redata: Initial MD time step             =        1
redata:   Final MD time step             =        1
redata: Length of MD time step           =     1.0000  fs
redata: Initial Temperature of MD run    =     0.0000  K
redata: Perform a MD quench              =     F
redata: ***********************************************************************
Total number of electrons:   315.000000
Total ionic charge:   315.000000

* ProcessorY, Blocksize:    2  24

k-point displ. along   1 input, could be:     0.00    0.50
k-point displ. along   2 input, could be:     0.00    0.50
 Kpoints in:          364 . Kpoints trimmed:          352

siesta: k-grid: Number of k-points =   352
siesta: k-grid: Cutoff (effective) =     5.000 Ang
siesta: k-grid: Supercell and displacements
siesta: k-grid:   26   0   0      0.000
siesta: k-grid:    0  26   0      0.000
siesta: k-grid:    0   0   1      0.000
Naive supercell factors:     2    2    2

superc: Internal auxiliary supercell:     2 x     2 x     2  =       8
superc: Number of atoms, orbitals, and projectors:    576   7488   9216

* Maximum dynamic memory allocated =     6 MB

siesta:                 ==============================
                            Begin MD step =      1
                        ==============================

superc: Internal auxiliary supercell:     2 x     2 x     2  =       8
superc: Number of atoms, orbitals, and projectors:    576   7488   9216

outcell: Unit cell vectors (Ang):
       14.785000    0.000000    0.000000
        7.393000   12.805052    0.000000
        0.000000    0.000000   10.000000

outcell: Cell vector modules (Ang)   :   14.785000   14.786000   10.000000
outcell: Cell angles (23,13,12) (deg):     90.0000     90.0000     60.0000
outcell: Cell volume (Ang**3)        :   1893.2269
New_DM. Step:     1
Initializing Density Matrix...

InitMesh: MESH =   120 x   120 x    90 =     1296000
InitMesh: Mesh cutoff (required, used) =   200.000   223.865 Ry

* Maximum dynamic memory allocated =   175 MB

stepf: Fermi-Dirac step function

siesta: Program's energy decomposition (eV):
siesta: Ebs     =     -4936.079072
siesta: Eions   =     22743.175864
siesta: Ena     =      4239.824409
siesta: Ekin    =      8644.090471
siesta: Enl     =      -531.169033
siesta: DEna    =        -0.000012
siesta: DUscf   =         0.000000
siesta: DUext   =         0.000000
siesta: Exc     =     -4605.189369
siesta: eta*DQ  =         0.000000
siesta: Emadel  =         0.000000
siesta: Emeta   =         0.000000
siesta: Emolmec =         0.000000
siesta: Ekinion =         0.000000
siesta: Eharris =    -14845.414422
siesta: Etot    =    -14995.619398
siesta: FreeEng =    -14995.619398

siesta: iscf   Eharris(eV)      E_KS(eV)   FreeEng(eV)   dDmax  Ef(eV)
siesta:    1   -14845.4144   -14995.6194   -14995.6194  1.9508 -3.5384
timer: Routine,Calls,Time,% = IterSCF        1    7718.750  99.85
elaps: Routine,Calls,Wall,% = IterSCF        1     966.318  99.85
siesta:    2   -14853.7068   -14824.8490   -14824.8785  0.2831 -2.4511
siesta:    3   -14845.2488   -14840.0509   -14840.0776  0.2436 -2.5773
siesta:    4   -14835.3212   -14834.5096   -14834.5342  0.0996 -2.5649
siesta:    5   -14835.0818   -14833.9472   -14833.9723  0.0695 -2.5835
siesta:    6   -14834.9390   -14833.4413   -14833.4670  0.0232 -2.7541
siesta:    7   -14834.9201   -14833.6073   -14833.6323  0.0163 -2.7802
siesta:    8   -14834.8401   -14834.0275   -14834.0523  0.0054 -2.7837
siesta:    9   -14834.8382   -14834.1398   -14834.1651  0.0039 -2.7821
siesta:   10   -14834.8373   -14834.3830   -14834.4083  0.0033 -2.7802
siesta:   11   -14834.8371   -14834.7098   -14834.7351  0.0012 -2.7760
siesta:   12   -14834.8364   -14834.8269   -14834.8521  0.0004 -2.7754
siesta:   13   -14834.8364   -14834.8363   -14834.8616  0.0003 -2.7754
siesta:   14   -14834.8364   -14834.8373   -14834.8626  0.0001 -2.7754

siesta: E_KS(eV) =           -14834.8386

siesta: E_KS - E_eggbox =    -14834.8386

siesta: Atomic forces (eV/Ang):
----------------------------------------
   Tot    0.151326   -0.434613    0.000000
----------------------------------------
   Max    0.601875
   Res    0.233202    sqrt( Sum f_i^2 / 3N )
----------------------------------------
   Max    0.601875    constrained

Stress-tensor-Voigt (kbar):       71.79       71.97        0.38       -0.22        0.00        0.00
(Free)E + p*V (eV/cell)   -14891.6397
Target enthalpy (eV/cell)   -14834.8639

siesta: Stress tensor (static) (eV/Ang**3):
         0.044806   -0.000138    0.000000
        -0.000138    0.044922    0.000000
         0.000000    0.000000    0.000239

siesta: Pressure (static):        -48.04802884  kBar

siesta: Stress tensor (total) (eV/Ang**3):
         0.044806   -0.000138    0.000000
        -0.000138    0.044922    0.000000
         0.000000    0.000000    0.000239

siesta: Pressure (total):        -48.04802884  kBar

siesta: Temp_ion =       0.000 K

* Maximum dynamic memory allocated =   190 MB

siesta: Program's energy decomposition (eV):
siesta: Ebs     =     -4671.913114
siesta: Eions   =     22743.175864
siesta: Ena     =      4239.824409
siesta: Ekin    =     10100.677028
siesta: Enl     =     -1604.470081
siesta: DEna    =      -172.325247
siesta: DUscf   =        19.220464
siesta: DUext   =         0.000000
siesta: Exc     =     -4674.589333
siesta: eta*DQ  =         0.000000
siesta: Emadel  =         0.000000
siesta: Emeta   =         0.000000
siesta: Emolmec =         0.000000
siesta: Ekinion =         0.000000
siesta: Eharris =    -14834.836422
siesta: Etot    =    -14834.838624
siesta: FreeEng =    -14834.863896

siesta: Final energy (eV):
siesta:  Band Struct. =   -4671.913114
siesta:       Kinetic =   10100.677028
siesta:       Hartree =   28260.600823
siesta:    Ext. field =       0.000000
siesta:   Exch.-corr. =   -4674.589333
siesta:  Ion-electron =  -66012.091619
siesta:       Ion-ion =   17490.564478
siesta:       Ekinion =       0.000000
siesta:         Total =  -14834.838624

siesta: Atomic forces (eV/Ang):
siesta:      1   -0.545274   -0.345238    0.000000
siesta:      2    0.010575    0.600107    0.000000
siesta:      3    0.545340   -0.328283    0.000000
siesta:      4    0.543879   -0.332287    0.000000
siesta:      5    0.545429   -0.348410    0.000000
siesta:      6   -0.524713   -0.347998    0.000000
siesta:      7    0.549363   -0.345239    0.000000
siesta:      8   -0.557031   -0.345306    0.000000
siesta:      9    0.545426   -0.348636    0.000000
siesta:     10   -0.006841    0.594742    0.000000
siesta:     11    0.009723    0.592727    0.000000
siesta:     12    0.004033    0.590201    0.000000
siesta:     13   -0.537379   -0.326906    0.000000
siesta:     14    0.540922   -0.331133    0.000000
siesta:     15   -0.523412   -0.329180    0.000000
siesta:     16    0.518206   -0.328234    0.000000
siesta:     17   -0.005178    0.597282    0.000000
siesta:     18   -0.028545    0.601875    0.000000
siesta:     19   -0.539268   -0.330889    0.000000
siesta:     20    0.545736   -0.328849    0.000000
siesta:     21    0.023007    0.596059    0.000000
siesta:     22   -0.529107   -0.330749    0.000000
siesta:     23   -0.549648   -0.327415    0.000000
siesta:     24    0.004315    0.594673    0.000000
siesta:     25    0.540812   -0.330434    0.000000
siesta:     26    0.005797    0.596111    0.000000
siesta:     27   -0.527034   -0.329919    0.000000
siesta:     28   -0.003002    0.001895    0.000000
siesta:     29   -0.158171    0.127303    0.000000
siesta:     30    0.021014   -0.210572    0.000000
siesta:     31    0.008550   -0.013809    0.000000
siesta:     32    0.194441    0.111445    0.000000
siesta:     33    0.011144   -0.212272    0.000000
siesta:     34    0.008228   -0.013812    0.000000
siesta:     35    0.194145    0.112848    0.000000
siesta:     36    0.006330   -0.007349    0.000000
siesta:     37    0.179522    0.131865    0.000000
siesta:     38    0.001276   -0.212787    0.000000
siesta:     39    0.000952    0.004351    0.000000
siesta:     40    0.032617   -0.214435    0.000000
siesta:     41   -0.004471    0.001319    0.000000
siesta:     42    0.013180   -0.211518    0.000000
siesta:     43   -0.195996    0.118600    0.000000
siesta:     44    0.006558   -0.011993    0.000000
siesta:     45    0.183587    0.115075    0.000000
siesta:     46   -0.165290    0.110492    0.000000
siesta:     47   -0.028533   -0.002368    0.000000
siesta:     48    0.178037    0.113958    0.000000
siesta:     49   -0.193698    0.118662    0.000000
siesta:     50   -0.001591    0.008336    0.000000
siesta:     51    0.002334   -0.208110    0.000000
siesta:     52    0.032712    0.000508    0.000000
siesta:     53   -0.001963   -0.208794    0.000000
siesta:     54   -0.195723    0.120248    0.000000
siesta:     55    0.010539   -0.014340    0.000000
siesta:     56    0.207974    0.110436    0.000000
siesta:     57   -0.199189    0.117022    0.000000
siesta:     58    0.000435    0.008483    0.000000
siesta:     59    0.031922   -0.214095    0.000000
siesta:     60   -0.156692    0.126499    0.000000
siesta:     61   -0.029936   -0.000968    0.000000
siesta:     62    0.173944    0.129035    0.000000
siesta:     63    0.001804    0.007640    0.000000
siesta:     64    0.007045   -0.012345    0.000000
siesta:     65    0.183943    0.114911    0.000000
siesta:     66   -0.003920    0.009113    0.000000
siesta:     67   -0.194118    0.118589    0.000000
siesta:     68    0.001807   -0.208806    0.000000
siesta:     69   -0.197668    0.135355    0.000000
siesta:     70   -0.000271    0.008058    0.000000
siesta:     71   -0.033088    0.000397    0.000000
siesta:     72    0.161474    0.132649    0.000000
siesta: ----------------------------------------
siesta:    Tot    0.151326   -0.434613    0.000000

siesta: Stress tensor (static) (eV/Ang**3):
siesta:     0.044806   -0.000138    0.000000
siesta:    -0.000138    0.044922    0.000000
siesta:     0.000000    0.000000    0.000239

siesta: Cell volume =       1893.226895 Ang**3

siesta: Pressure (static):
siesta:                Solid            Molecule  Units
siesta:          -0.00032662         -0.00039171  Ry/Bohr**3
siesta:          -0.02998890         -0.03596547  eV/Ang**3
siesta:         -48.04802884        -57.62365297  kBar
(Free)E+ p_basis*V_orbitals  =      -14807.986296
(Free)Eharris+ p_basis*V_orbitals  =      -14807.985405

siesta: Electric dipole (a.u.)  =    0.000000    0.000000    0.000000
siesta: Electric dipole (Debye) =    0.000000    0.000000    0.000000

* Maximum dynamic memory allocated : Node    0 =   190 MB
* Maximum dynamic memory allocated : Node    1 =    71 MB
* Maximum dynamic memory allocated : Node    2 =    72 MB
* Maximum dynamic memory allocated : Node    3 =   180 MB
* Maximum dynamic memory allocated : Node    4 =   189 MB
* Maximum dynamic memory allocated : Node    5 =    71 MB
* Maximum dynamic memory allocated : Node    6 =    72 MB
* Maximum dynamic memory allocated : Node    7 =   175 MB

* Maximum memory occured during matrixMtoO                    

timer: CPU execution times:
timer:  Routine       Calls   Time/call    Tot.time        %
timer:  siesta            1  106661.353  106661.353   100.00
timer:  Setup             1       3.123       3.123     0.00
timer:  bands             1       0.009       0.009     0.00
timer:  writewave         1       0.018       0.018     0.00
timer:  KSV_init          1       0.000       0.000     0.00
timer:  IterMD            1  106650.034  106650.034    99.99
timer:  hsparse           1       0.264       0.264     0.00
timer:  overlap           1       7.676       7.676     0.01
timer:  IterSCF          14    7607.288  106502.038    99.85
timer:  kinefsm           2       3.922       7.844     0.01
timer:  nlefsm            2      17.866      35.732     0.03
timer:  DHSCF            15      80.730    1210.946     1.14
timer:  DHSCF1            1       0.811       0.811     0.00
timer:  DHSCF2            1      33.179      33.179     0.03
timer:  REORD           122       0.014       1.693     0.00
timer:  POISON           16       3.746      59.937     0.06
timer:  DHSCF3           15      76.553    1148.291     1.08
timer:  rhoofd           15      13.975     209.620     0.20
timer:  cellXC           15       3.590      53.845     0.05
timer:  vmat             15      38.081     571.216     0.54
timer:  MolMec            2       0.000       0.000     0.00
timer:  diagon           14    7524.633  105344.856    98.77
timer:  c-eigval       4928       7.223   35593.800    33.37
timer:  c-buildHS      4928       0.206    1013.922     0.95
timer:  cdiag          9856       7.406   72994.272    68.44
timer:  cdiag1         9856       0.460    4529.253     4.25
timer:  cdiag2         9856       1.974   19453.788    18.24
timer:  cdiag3         9856       4.178   41173.773    38.60
timer:  cdiag4         9856       0.248    2445.987     2.29
timer:  c-eigvec       4928       7.882   38841.208    36.42
timer:  c-buildD       4928       6.261   30852.348    28.93
timer:  DHSCF4            1      27.312      27.312     0.03
timer:  dfscf             1      25.546      25.546     0.02
timer:  overfsm           1       0.360       0.360     0.00
timer:  optical           1       7.165       7.165     0.01
  

elaps: ELAPSED times:
elaps:  Routine       Calls   Time/call    Tot.time        %
elaps:  siesta            1   13352.047   13352.047   100.00
elaps:  Setup             1       0.391       0.391     0.00
elaps:  bands             1       0.001       0.001     0.00
elaps:  writewave         1       0.002       0.002     0.00
elaps:  KSV_init          1       0.000       0.000     0.00
elaps:  IterMD            1   13350.630   13350.630    99.99
elaps:  hsparse           1       0.031       0.031     0.00
elaps:  overlap           1       0.962       0.962     0.01
elaps:  IterSCF          14     952.294   13332.116    99.85
elaps:  kinefsm           2       0.496       0.993     0.01
elaps:  nlefsm            2       2.292       4.585     0.03
elaps:  DHSCF            15      10.296     154.433     1.16
elaps:  DHSCF1            1       0.105       0.105     0.00
elaps:  DHSCF2            1       4.150       4.150     0.03
elaps:  REORD           122       0.002       0.224     0.00
elaps:  POISON           16       0.470       7.524     0.06
elaps:  DHSCF3           15       9.579     143.690     1.08
elaps:  rhoofd           15       3.080      46.196     0.35
elaps:  cellXC           15       0.448       6.725     0.05
elaps:  vmat             15       4.765      71.479     0.54
elaps:  MolMec            2       0.000       0.000     0.00
elaps:  diagon           14     941.984   13187.783    98.77
elaps:  c-eigval       4928       0.904    4453.961    33.36
elaps:  c-buildHS      4928       0.027     133.991     1.00
elaps:  cdiag          9856       0.908    8948.957    67.02
elaps:  cdiag1         9856       0.057     564.808     4.23
elaps:  cdiag2         9856       0.247    2434.080    18.23
elaps:  cdiag3         9856       0.524    5159.924    38.65
elaps:  cdiag4         9856       0.032     312.651     2.34
elaps:  c-eigvec       4928       0.952    4691.628    35.14
elaps:  c-buildD       4928       0.819    4033.878    30.21
elaps:  DHSCF4            1       6.302       6.302     0.05
elaps:  dfscf             1       5.940       5.940     0.04
elaps:  overfsm           1       0.045       0.045     0.00
elaps:  optical           1       0.000       0.000     0.00
  
>> End of run:   5-DEC-2015  10:04:04
