Siesta Version:                                        siesta-3.2-pl-3
Architecture  : x86_64-unknown-linux-gnu--unknown
Compiler flags: mpiifort -g -O2 -fPIC -xSSE4.1 -fp-model source -shared-intel 
PARALLEL version

* Running on    8 nodes in parallel
>> Start of run:   9-DEC-2015  16:54:10

                           ***********************       
                           *  WELCOME TO SIESTA  *       
                           ***********************       

reinit: Reading from standard input
************************** Dump of input data file ****************************
#(1) General system descriptors
SystemName            GRP_doping    # Descriptive name of the system
SystemLabel           GRP_doping    # Short name for naming files
%include STRUCT.fdf
%include KPT.fdf
%include BASIS.fdf
#%include TS.fdf # for transiesta calculation
#(4) DFT, Grid, SCF
XC.functional         GGA           # LDA or GGA (default = LDA)
XC.authors            PBE           # CA (Ceperley-Aldr) = PZ
                                    #    (Perdew-Zunger) - LDA - Default
                                    # PW92 (Perdew-Wang-92) - LDA
                                    # PBE (Perdew-Burke-Ernzerhof) - GGA
MeshCutoff            200.000000    Ry      # Default: 50.0 Ry ~ 0.444 Bohr
                                    #         100.0 Ry ~ 0.314 Bohr
MaxSCFIterations      500           # Default: 50
DM.MixingWeight       0.05          # Default: 0.25
DM.NumberPulay        10            # Default: 0
DM.PulayOnFile        F             # SystemLabel.P1, SystemLabel.P2
DM.Tolerance          1.d-4         # Default: 1.d-4
DM.UseSaveDM          .true.        # because of the bug
SCFMustConverge       .true.
NeglNonOverlapInt     F             # Default: F
#(5) Eigenvalue problem: order-N or diagonalization
SolutionMethod        Diagon        # or Transiesta
ElectronicTemperature 300.0 K       # Default: 300.0 K
#(6) Molecular dynamics and relaxations
#MD.TypeOfRun          CG            # Type of dynamics:
#MD.VariableCell       F
#MD.NumCGsteps         0           # 0 for single-point / 100 for gopt
#MD.MaxCGDispl         0.2 Bohr      # Default: 0.2 Bohr
#MD.MaxForceTol        0.02 eV/Ang   # Default: 0.04 eV/Ang
#MD.MaxStressTol       1.0 GPa       # Default: 1.0 GPa
# Geometry Constraints
#%block GeometryConstraints
#	position from 1 to 44
#%endblock GeometryConstraints
BandLinesScale   pi/a
%block BandLines
 1   0.00000000  0.00000000  0.00000000
50   0.00000000  0.07809418  0.00000000
50   0.04509075  0.07809242  0.00000000
20   0.00000000  0.00000000  0.00000000
%endblock BandLines
************************** End of input data file *****************************

reinit: -----------------------------------------------------------------------
reinit: System Name: GRP_doping
reinit: -----------------------------------------------------------------------
reinit: System Label: GRP_doping                                                  
reinit: -----------------------------------------------------------------------

initatom: Reading input for the pseudopotentials and atomic orbitals ----------
 Species number:            1  Label: C Atomic number:           6
 Species number:            2  Label: N Atomic number:           7
Ground state valence configuration:   2s02  2p02
Reading pseudopotential information in formatted form from C.psf

Valence configuration for pseudopotential generation:
2s( 2.00) rc: 1.54
2p( 2.00) rc: 1.54
3d( 0.00) rc: 1.54
4f( 0.00) rc: 1.54
Ground state valence configuration:   2s02  2p03
Reading pseudopotential information in formatted form from N.psf

Valence configuration for pseudopotential generation:
2s( 2.00) rc: 1.48
2p( 3.00) rc: 1.48
3d( 0.00) rc: 1.48
4f( 0.00) rc: 1.48
For C, standard SIESTA heuristics set lmxkb to 3
 (one more than the basis l, including polarization orbitals).
Use PS.lmax or PS.KBprojectors blocks to override.
For N, standard SIESTA heuristics set lmxkb to 3
 (one more than the basis l, including polarization orbitals).
Use PS.lmax or PS.KBprojectors blocks to override.

<basis_specs>
===============================================================================
C                    Z=   6    Mass=  12.010        Charge= 0.17977+309
Lmxo=1 Lmxkb= 3    BasisType=split      Semic=F
L=0  Nsemic=0  Cnfigmx=2
          n=1  nzeta=2  polorb=0
            splnorm:   0.15000    
               vcte:    0.0000    
               rinn:    0.0000    
                rcs:    0.0000      0.0000    
            lambdas:    1.0000      1.0000    
L=1  Nsemic=0  Cnfigmx=2
          n=1  nzeta=2  polorb=1
            splnorm:   0.15000    
               vcte:    0.0000    
               rinn:    0.0000    
                rcs:    0.0000      0.0000    
            lambdas:    1.0000      1.0000    
-------------------------------------------------------------------------------
L=0  Nkbl=1  erefs: 0.17977+309
L=1  Nkbl=1  erefs: 0.17977+309
L=2  Nkbl=1  erefs: 0.17977+309
L=3  Nkbl=1  erefs: 0.17977+309
===============================================================================
</basis_specs>

atom: Called for C                     (Z =   6)

read_vps: Pseudopotential generation method:
read_vps: ATM3      Troullier-Martins                       
Total valence charge:    4.00000

read_vps: Pseudopotential includes a core correction:
read_vps: Pseudo-core for xc-correction

xc_check: Exchange-correlation functional:
xc_check: GGA Perdew, Burke & Ernzerhof 1996
V l=0 = -2*Zval/r beyond r=  1.5227
V l=1 = -2*Zval/r beyond r=  1.5227
V l=2 = -2*Zval/r beyond r=  1.5227
V l=3 = -2*Zval/r beyond r=  1.5038
All V_l potentials equal beyond r=  1.5227
This should be close to max(r_c) in ps generation
All pots = -2*Zval/r beyond r=  1.5227

VLOCAL1: 99.0% of the norm of Vloc inside     18.722 Ry
VLOCAL1: 99.9% of the norm of Vloc inside     42.668 Ry
atom: Maximum radius for 4*pi*r*r*local-pseudopot. charge    1.83678
atom: Maximum radius for r*vlocal+2*Zval:    1.58088
GHOST: No ghost state for L =  0
GHOST: No ghost state for L =  1
GHOST: No ghost state for L =  2
GHOST: No ghost state for L =  3

KBgen: Kleinman-Bylander projectors: 
   l= 0   rc=  1.704034   el= -1.009801   Ekb=  5.335044   kbcos=  0.316824
   l= 1   rc=  1.704034   el= -0.388707   Ekb= -3.785862   kbcos= -0.366464
   l= 2   rc=  1.791422   el=  0.001971   Ekb= -0.970471   kbcos= -0.009212
   l= 3   rc=  1.859892   el=  0.003065   Ekb= -0.399525   kbcos= -0.001223

KBgen: Total number of  Kleinman-Bylander projectors:   16
atom: -------------------------------------------------------------------------

atom: SANKEY-TYPE ORBITALS:
atom: Selected multiple-zeta basis: split     

SPLIT: Orbitals with angular momentum L= 0

SPLIT: Basis orbitals for state 2s

SPLIT: PAO cut-off radius determined from an
SPLIT: energy shift=  0.007350 Ry

   izeta = 1
                 lambda =    1.000000
                     rc =    4.632753
                 energy =   -1.002270
                kinetic =    0.855760
    potential(screened) =   -1.858031
       potential(ionic) =   -5.417575

   izeta = 2
                 rmatch =    3.431921
              splitnorm =    0.150000
                 energy =   -0.867111
                kinetic =    1.300804
    potential(screened) =   -2.167915
       potential(ionic) =   -5.962684

SPLIT: Orbitals with angular momentum L= 1

SPLIT: Basis orbitals for state 2p

SPLIT: PAO cut-off radius determined from an
SPLIT: energy shift=  0.007350 Ry

   izeta = 1
                 lambda =    1.000000
                     rc =    5.658549
                 energy =   -0.381140
                kinetic =    2.399701
    potential(screened) =   -2.780841
       potential(ionic) =   -6.206085

   izeta = 2
                 rmatch =    3.653288
              splitnorm =    0.150000
                 energy =   -0.249149
                kinetic =    3.542762
    potential(screened) =   -3.791911
       potential(ionic) =   -7.581078

POLgen: Perturbative polarization orbital with L=  2

POLgen: Polarization orbital for state 2p

   izeta = 1
                     rc =    5.658549
                 energy =    1.109913
                kinetic =    2.304789
    potential(screened) =   -1.194876
       potential(ionic) =   -4.013592
atom: Total number of Sankey-type orbitals: 13

atm_pop: Valence configuration (for local Pseudopot. screening):
 2s( 2.00)                                                            
 2p( 2.00)                                                            
Vna: chval, zval:    4.00000   4.00000

Vna:  Cut-off radius for the neutral-atom potential:   5.658549
comcore: Pseudo-core radius Rcore=  1.791422

atom: _________________________________________________________________________

<basis_specs>
===============================================================================
N                    Z=   7    Mass=  14.010        Charge= 0.17977+309
Lmxo=1 Lmxkb= 3    BasisType=split      Semic=F
L=0  Nsemic=0  Cnfigmx=2
          n=1  nzeta=2  polorb=0
            splnorm:   0.15000    
               vcte:    0.0000    
               rinn:    0.0000    
                rcs:    0.0000      0.0000    
            lambdas:    1.0000      1.0000    
L=1  Nsemic=0  Cnfigmx=2
          n=1  nzeta=2  polorb=1
            splnorm:   0.15000    
               vcte:    0.0000    
               rinn:    0.0000    
                rcs:    0.0000      0.0000    
            lambdas:    1.0000      1.0000    
-------------------------------------------------------------------------------
L=0  Nkbl=1  erefs: 0.17977+309
L=1  Nkbl=1  erefs: 0.17977+309
L=2  Nkbl=1  erefs: 0.17977+309
L=3  Nkbl=1  erefs: 0.17977+309
===============================================================================
</basis_specs>

atom: Called for N                     (Z =   7)

read_vps: Pseudopotential generation method:
read_vps: ATM3      Troullier-Martins                       
Total valence charge:    5.00000

read_vps: Pseudopotential includes a core correction:
read_vps: Pseudo-core for xc-correction

xc_check: Exchange-correlation functional:
xc_check: GGA Perdew, Burke & Ernzerhof 1996
V l=0 = -2*Zval/r beyond r=  1.4606
V l=1 = -2*Zval/r beyond r=  1.4606
V l=2 = -2*Zval/r beyond r=  1.4606
V l=3 = -2*Zval/r beyond r=  1.4606
All V_l potentials equal beyond r=  1.4606
This should be close to max(r_c) in ps generation
All pots = -2*Zval/r beyond r=  1.4606

VLOCAL1: 99.0% of the norm of Vloc inside     20.347 Ry
VLOCAL1: 99.9% of the norm of Vloc inside     46.372 Ry
atom: Maximum radius for 4*pi*r*r*local-pseudopot. charge    1.76189
atom: Maximum radius for r*vlocal+2*Zval:    1.53550
GHOST: No ghost state for L =  0
GHOST: No ghost state for L =  1
GHOST: No ghost state for L =  2
GHOST: No ghost state for L =  3

KBgen: Kleinman-Bylander projectors: 
   l= 0   rc=  1.634559   el= -1.363963   Ekb=  5.296955   kbcos=  0.335621
   l= 1   rc=  1.614250   el= -0.521451   Ekb= -5.259161   kbcos= -0.433408
   l= 2   rc=  1.718383   el=  0.001991   Ekb= -1.271464   kbcos= -0.007566
   l= 3   rc=  1.761893   el=  0.003093   Ekb= -0.494769   kbcos= -0.001015

KBgen: Total number of  Kleinman-Bylander projectors:   16
atom: -------------------------------------------------------------------------

atom: SANKEY-TYPE ORBITALS:
atom: Selected multiple-zeta basis: split     

SPLIT: Orbitals with angular momentum L= 0

SPLIT: Basis orbitals for state 2s

SPLIT: PAO cut-off radius determined from an
SPLIT: energy shift=  0.007350 Ry

   izeta = 1
                 lambda =    1.000000
                     rc =    4.071465
                 energy =   -1.356470
                kinetic =    1.176977
    potential(screened) =   -2.533447
       potential(ionic) =   -8.057990

   izeta = 2
                 rmatch =    2.905100
              splitnorm =    0.150000
                 energy =   -1.158343
                kinetic =    1.813009
    potential(screened) =   -2.971352
       potential(ionic) =   -8.901931

SPLIT: Orbitals with angular momentum L= 1

SPLIT: Basis orbitals for state 2p

SPLIT: PAO cut-off radius determined from an
SPLIT: energy shift=  0.007350 Ry

   izeta = 1
                 lambda =    1.000000
                     rc =    4.972977
                 energy =   -0.513884
                kinetic =    3.441732
    potential(screened) =   -3.955616
       potential(ionic) =   -9.287901

   izeta = 2
                 rmatch =    3.054066
              splitnorm =    0.150000
                 energy =   -0.318226
                kinetic =    5.125348
    potential(screened) =   -5.443573
       potential(ionic) =  -11.380999

POLgen: Perturbative polarization orbital with L=  2

POLgen: Polarization orbital for state 2p

   izeta = 1
                     rc =    4.972977
                 energy =    1.607437
                kinetic =    3.268125
    potential(screened) =   -1.660688
       potential(ionic) =   -5.973652
atom: Total number of Sankey-type orbitals: 13

atm_pop: Valence configuration (for local Pseudopot. screening):
 2s( 2.00)                                                            
 2p( 3.00)                                                            
Vna: chval, zval:    5.00000   5.00000

Vna:  Cut-off radius for the neutral-atom potential:   4.972977
comcore: Pseudo-core radius Rcore=  1.554824

atom: _________________________________________________________________________

prinput: Basis input ----------------------------------------------------------

PAO.BasisType split     

%block ChemicalSpeciesLabel
    1    6 C                       # Species index, atomic number, species label
    2    7 N                       # Species index, atomic number, species label
%endblock ChemicalSpeciesLabel

%block PAO.Basis                 # Define Basis set
C                     2                    # Species label, number of l-shells
 n=2   0   2                         # n, l, Nzeta 
   4.633      3.432   
   1.000      1.000   
 n=2   1   2 P   1                   # n, l, Nzeta, Polarization, NzetaPol
   5.659      3.653   
   1.000      1.000   
N                     2                    # Species label, number of l-shells
 n=2   0   2                         # n, l, Nzeta 
   4.071      2.905   
   1.000      1.000   
 n=2   1   2 P   1                   # n, l, Nzeta, Polarization, NzetaPol
   4.973      3.054   
   1.000      1.000   
%endblock PAO.Basis

prinput: ----------------------------------------------------------------------

coor:   Atomic-coordinates input format  =     Cartesian coordinates
coor:                                          (in Angstroms)

siesta: Atomic coordinates (Bohr) and species
siesta:      2.23554   1.32097   0.00000  1        1
siesta:      4.56367   2.66461   0.00000  1        2
siesta:     32.50328  21.48508   0.00000  1        3
siesta:     34.83141  22.82873   0.00000  1        4
siesta:     34.83116  17.45226   0.00000  1        5
siesta:     37.15930  18.79590   0.00000  1        6
siesta:     32.50291  13.41944   0.00000  1        7
siesta:     34.83104  14.76308   0.00000  1        8
siesta:     30.17465   9.38661   0.00000  1        9
siesta:     32.50278  10.73026   0.00000  1       10
siesta:     27.84639   5.35379   0.00000  1       11
siesta:     30.17453   6.69743   0.00000  1       12
siesta:     27.84714  21.48508   0.00000  1       13
siesta:     30.17527  22.82873   0.00000  1       14
siesta:      6.89168   1.32097   0.00000  1       15
siesta:      9.21981   2.66461   0.00000  1       16
siesta:     11.54782   1.32097   0.00000  1       17
siesta:     13.87595   2.66461   0.00000  1       18
siesta:     16.20396   1.32097   0.00000  1       19
siesta:     18.53210   2.66461   0.00000  1       20
siesta:     20.86199   1.32097   0.00000  1       21
siesta:     23.19013   2.66461   0.00000  1       22
siesta:     25.51813   1.32097   0.00000  1       23
siesta:     27.84627   2.66461   0.00000  1       24
siesta:      4.56380   5.35379   0.00000  1       25
siesta:      6.89193   6.69743   0.00000  1       26
siesta:      9.21994   5.35379   0.00000  1       27
siesta:     11.54807   6.69743   0.00000  1       28
siesta:     13.87608   5.35379   0.00000  1       29
siesta:     16.20421   6.69743   0.00000  1       30
siesta:     18.53411   5.35379   0.00000  1       31
siesta:     20.86224   6.69743   0.00000  1       32
siesta:     23.19025   5.35379   0.00000  1       33
siesta:     25.51838   6.69743   0.00000  1       34
siesta:      6.89205   9.38661   0.00000  1       35
siesta:      9.22019  10.73026   0.00000  1       36
siesta:     11.54820   9.38661   0.00000  1       37
siesta:     13.87633  10.73026   0.00000  1       38
siesta:     16.20434   9.38661   0.00000  1       39
siesta:     18.53247  10.73026   0.00000  1       40
siesta:      9.22031  13.41944   0.00000  1       41
siesta:     11.54845  14.76308   0.00000  1       42
siesta:     13.87645  13.41944   0.00000  1       43
siesta:     16.20459  14.76308   0.00000  1       44
siesta:     18.53448  13.41944   0.00000  1       45
siesta:     20.86262  14.76308   0.00000  1       46
siesta:     11.54857  17.45226   0.00000  1       47
siesta:     13.87670  18.79590   0.00000  1       48
siesta:     16.20471  17.45226   0.00000  1       49
siesta:     18.53284  18.79590   0.00000  1       50
siesta:     13.87683  21.48508   0.00000  1       51
siesta:     16.20496  22.82873   0.00000  1       52
siesta:     18.53486  21.48508   0.00000  1       53
siesta:     20.86299  22.82873   0.00000  1       54
siesta:     25.51851   9.38661   0.00000  1       55
siesta:     27.84664  10.73026   0.00000  1       56
siesta:     23.19063  13.41944   0.00000  1       57
siesta:     25.51876  14.76308   0.00000  1       58
siesta:     20.86274  17.45226   0.00000  1       59
siesta:     23.19088  18.79590   0.00000  1       60
siesta:     27.84677  13.41944   0.00000  1       61
siesta:     30.17490  14.76308   0.00000  1       62
siesta:     25.51888  17.45226   0.00000  1       63
siesta:     27.84702  18.79590   0.00000  1       64
siesta:     23.19100  21.48508   0.00000  1       65
siesta:     25.51913  22.82873   0.00000  1       66
siesta:     30.17503  17.45226   0.00000  1       67
siesta:     32.50316  18.79590   0.00000  1       68
siesta:     37.16131  21.48508   0.00000  1       69
siesta:     39.48945  22.82873   0.00000  1       70
siesta:     20.86237   9.38661   0.00000  2       71
siesta:     23.19050  10.73026   0.00000  2       72

siesta: System type = slab      

initatomlists: Number of atoms, orbitals, and projectors:     72   936  1152

siesta: ******************** Simulation parameters ****************************
siesta:
siesta: The following are some of the parameters of the simulation.
siesta: A complete list of the parameters used, including default values,
siesta: can be found in file out.fdf
siesta:
redata: Non-Collinear-spin run           =     F
redata: SpinPolarized (Up/Down) run      =     F
redata: Number of spin components        =     1
redata: Long output                      =     F
redata: Number of Atomic Species         =        2
redata: Charge density info will appear in .RHO file
redata: Write Mulliken Pop.              =     NO
redata: Mesh Cutoff                      =   200.0000  Ry
redata: Net charge of the system         =     0.0000 |e|
redata: Max. number of SCF Iter          =      500
redata: SCF convergence failure will abort job
redata: Performing Pulay mixing using    =    10 iterations
redata: Mix DM in first SCF step ?       =     F
redata: Write Pulay info on disk?        =     F
redata: Discard 1st Pulay DM after  kick =     F
redata: New DM Mixing Weight             =     0.0500
redata: New DM Occupancy tolerance       = 0.000000000001
redata: No kicks to SCF
redata: DM Mixing Weight for Kicks       =     0.5000
redata: DM Tolerance for SCF             =     0.000100
redata: Require Energy convergence for SCF =     F
redata: DM Energy tolerance for SCF      =     0.000100 eV
redata: Require Harris convergence for SCF =     F
redata: DM Harris energy tolerance for SCF =     0.000100 eV
redata: Using Saved Data (generic)   =     F
redata: Use continuation files for DM    =     T
redata: Neglect nonoverlap interactions  =     F
redata: Method of Calculation            =     Diagonalization
redata: Divide and Conquer               =     T
redata: Electronic Temperature           =     0.0019  Ry
redata: Fix the spin of the system       =     F
redata: Dynamics option                  =     Verlet MD run
redata: Initial MD time step             =        1
redata:   Final MD time step             =        1
redata: Length of MD time step           =     1.0000  fs
redata: Initial Temperature of MD run    =     0.0000  K
redata: Perform a MD quench              =     F
redata: ***********************************************************************
Total number of electrons:   290.000000
Total ionic charge:   290.000000

* ProcessorY, Blocksize:    2  24

k-point displ. along   1 input, could be:     0.00    0.50
k-point displ. along   2 input, could be:     0.00    0.50
 Kpoints in:          364 . Kpoints trimmed:          352

siesta: k-grid: Number of k-points =   352
siesta: k-grid: Cutoff (effective) =     5.000 Ang
siesta: k-grid: Supercell and displacements
siesta: k-grid:   26   0   0      0.000
siesta: k-grid:    0  26   0      0.000
siesta: k-grid:    0   0   1      0.000
Naive supercell factors:     2    2    2

superc: Internal auxiliary supercell:     2 x     2 x     2  =       8
superc: Number of atoms, orbitals, and projectors:    576   7488   9216

* Maximum dynamic memory allocated =     6 MB

siesta:                 ==============================
                            Begin MD step =      1
                        ==============================

superc: Internal auxiliary supercell:     2 x     2 x     2  =       8
superc: Number of atoms, orbitals, and projectors:    576   7488   9216

outcell: Unit cell vectors (Ang):
       14.785000    0.000000    0.000000
        7.393000   12.805052    0.000000
        0.000000    0.000000   10.000000

outcell: Cell vector modules (Ang)   :   14.785000   14.786000   10.000000
outcell: Cell angles (23,13,12) (deg):     90.0000     90.0000     60.0000
outcell: Cell volume (Ang**3)        :   1893.2269
New_DM. Step:     1
Initializing Density Matrix...

iodm: Reading Density Matrix from files

InitMesh: MESH =   120 x   120 x    90 =     1296000
InitMesh: Mesh cutoff (required, used) =   200.000   223.865 Ry

* Maximum dynamic memory allocated =   194 MB

stepf: Fermi-Dirac step function

siesta: Program's energy decomposition (eV):
siesta: Ebs     =     -3990.035909
siesta: Eions   =     18724.504759
siesta: Ena     =      3995.724568
siesta: Ekin    =      7999.104739
siesta: Enl     =      -851.678085
siesta: DEna    =      -277.960598
siesta: DUscf   =        24.734256
siesta: DUext   =         0.000000
siesta: Exc     =     -4086.058770
siesta: eta*DQ  =         0.000000
siesta: Emadel  =         0.000000
siesta: Emeta   =         0.000000
siesta: Emolmec =         0.000000
siesta: Ekinion =         0.000000
siesta: Eharris =    -11920.630991
siesta: Etot    =    -11920.638650
siesta: FreeEng =    -11920.638650

siesta: iscf   Eharris(eV)      E_KS(eV)   FreeEng(eV)   dDmax  Ef(eV)
siesta:    1   -11920.6310   -11920.6386   -11920.6386  0.0000 -4.0523
timer: Routine,Calls,Time,% = IterSCF        1    7954.276  99.85
elaps: Routine,Calls,Wall,% = IterSCF        1     995.947  99.85

siesta: E_KS(eV) =           -11920.6310

siesta: E_KS - E_eggbox =    -11920.6310

siesta: Atomic forces (eV/Ang):
----------------------------------------
   Tot    0.208507   -0.285349    0.000000
----------------------------------------
   Max    1.053365
   Res    0.241086    sqrt( Sum f_i^2 / 3N )
----------------------------------------
   Max    1.053365    constrained

Stress-tensor-Voigt (kbar):      -29.83      -28.37        0.04       -0.92        0.00        0.00
(Free)E + p*V (eV/cell)   -11897.7412
Target enthalpy (eV/cell)   -11920.6479

siesta: Stress tensor (static) (eV/Ang**3):
        -0.018616   -0.000572    0.000000
        -0.000572   -0.017706    0.000000
         0.000000    0.000000    0.000024

siesta: Pressure (static):         19.38543864  kBar

siesta: Stress tensor (total) (eV/Ang**3):
        -0.018616   -0.000572    0.000000
        -0.000572   -0.017706    0.000000
         0.000000    0.000000    0.000024

siesta: Pressure (total):         19.38543864  kBar

siesta: Temp_ion =       0.000 K

* Maximum dynamic memory allocated =   207 MB
Computing bands...

siesta: Program's energy decomposition (eV):
siesta: Ebs     =     -3990.035909
siesta: Eions   =     18724.504759
siesta: Ena     =      3995.724568
siesta: Ekin    =      7999.101592
siesta: Enl     =      -851.676504
siesta: DEna    =      -277.953778
siesta: DUscf   =        24.733905
siesta: DUext   =         0.000000
siesta: Exc     =     -4086.056014
siesta: eta*DQ  =         0.000000
siesta: Emadel  =         0.000000
siesta: Emeta   =         0.000000
siesta: Emolmec =         0.000000
siesta: Ekinion =         0.000000
siesta: Eharris =    -11920.630991
siesta: Etot    =    -11920.630990
siesta: FreeEng =    -11920.647919

siesta: Final energy (eV):
siesta:  Band Struct. =   -3990.035909
siesta:       Kinetic =    7999.101592
siesta:       Hartree =   23490.894549
siesta:    Ext. field =       0.000000
siesta:   Exch.-corr. =   -4086.056014
siesta:  Ion-electron =  -54373.031628
siesta:       Ion-ion =   15048.460511
siesta:       Ekinion =       0.000000
siesta:         Total =  -11920.630990

siesta: Atomic forces (eV/Ang):
siesta:      1   -0.157598    0.068179    0.000000
siesta:      2    0.069616    0.134858    0.000000
siesta:      3   -0.019929    0.001404    0.000000
siesta:      4    0.135832   -0.086799    0.000000
siesta:      5    0.079062    0.032319    0.000000
siesta:      6   -0.042407   -0.037624    0.000000
siesta:      7    0.158340   -0.157568    0.000000
siesta:      8   -0.027136   -0.049295    0.000000
siesta:      9   -0.051021   -0.373180    0.000000
siesta:     10   -0.028286    0.184927    0.000000
siesta:     11   -0.022079    0.316369    0.000000
siesta:     12    0.025267    0.078989    0.000000
siesta:     13   -0.021185    0.067451    0.000000
siesta:     14    0.023679   -0.049449    0.000000
siesta:     15    0.075252    0.005337    0.000000
siesta:     16   -0.074178   -0.042788    0.000000
siesta:     17    0.071147   -0.021794    0.000000
siesta:     18    0.048863   -0.203774    0.000000
siesta:     19   -0.129290    0.097905    0.000000
siesta:     20    0.379498   -0.134340    0.000000
siesta:     21   -0.106348    0.006529    0.000000
siesta:     22   -0.274192    0.186632    0.000000
siesta:     23    0.054802   -0.175904    0.000000
siesta:     24    0.114563   -0.112622    0.000000
siesta:     25    0.034489   -0.145634    0.000000
siesta:     26    0.005098    0.033167    0.000000
siesta:     27    0.047915    0.035374    0.000000
siesta:     28   -0.151799    0.147692    0.000000
siesta:     29    0.363456    0.191516    0.000000
siesta:     30   -0.372198   -0.237585    0.000000
siesta:     31    0.132142    0.577718    0.000000
siesta:     32    0.681993    0.492675    0.000000
siesta:     33   -0.791161    0.115497    0.000000
siesta:     34    0.285518    0.753787    0.000000
siesta:     35    0.043564   -0.068217    0.000000
siesta:     36   -0.054663    0.066241    0.000000
siesta:     37    0.049069   -0.199858    0.000000
siesta:     38    0.057167    0.363066    0.000000
siesta:     39    0.591796   -0.159787    0.000000
siesta:     40    0.801701    0.351571    0.000000
siesta:     41   -0.015338   -0.035782    0.000000
siesta:     42   -0.045228    0.144073    0.000000
siesta:     43    0.005164   -0.098156    0.000000
siesta:     44    0.057809   -0.332229    0.000000
siesta:     45   -0.323126   -0.755721    0.000000
siesta:     46    0.793000   -0.122501    0.000000
siesta:     47   -0.077373   -0.145576    0.000000
siesta:     48    0.139354   -0.098108    0.000000
siesta:     49   -0.094395    0.096530    0.000000
siesta:     50   -0.002618    0.138435    0.000000
siesta:     51    0.139229    0.053342    0.000000
siesta:     52   -0.076644   -0.045959    0.000000
siesta:     53   -0.017429   -0.176494    0.000000
siesta:     54    0.146639    0.015819    0.000000
siesta:     55   -0.766780   -0.356310    0.000000
siesta:     56   -0.587134    0.150304    0.000000
siesta:     57   -0.676793   -0.503636    0.000000
siesta:     58   -0.164105   -0.577873    0.000000
siesta:     59    0.245778   -0.192199    0.000000
siesta:     60    0.070375   -0.028477    0.000000
siesta:     61    0.407318    0.220265    0.000000
siesta:     62   -0.353649   -0.199748    0.000000
siesta:     63   -0.334013    0.116189    0.000000
siesta:     64    0.140800   -0.127786    0.000000
siesta:     65   -0.093673    0.098605    0.000000
siesta:     66    0.024772    0.017629    0.000000
siesta:     67   -0.044396    0.190776    0.000000
siesta:     68   -0.061078   -0.009208    0.000000
siesta:     69   -0.189246    0.005436    0.000000
siesta:     70   -0.039712    0.202559    0.000000
siesta:     71   -1.053365   -0.615666    0.000000
siesta:     72    1.048006    0.633136    0.000000
siesta: ----------------------------------------
siesta:    Tot    0.208507   -0.285349    0.000000

siesta: Stress tensor (static) (eV/Ang**3):
siesta:    -0.018616   -0.000572    0.000000
siesta:    -0.000572   -0.017706    0.000000
siesta:     0.000000    0.000000    0.000024

siesta: Cell volume =       1893.226895 Ang**3

siesta: Pressure (static):
siesta:                Solid            Molecule  Units
siesta:           0.00013178          0.00016253  Ry/Bohr**3
siesta:           0.01209931          0.01492324  eV/Ang**3
siesta:          19.38543864         23.90992903  kBar
(Free)E+ p_basis*V_orbitals  =      -11890.196227
(Free)Eharris+ p_basis*V_orbitals  =      -11890.188569

siesta: Electric dipole (a.u.)  =    0.000000    0.000000    0.000000
siesta: Electric dipole (Debye) =    0.000000    0.000000    0.000000

* Maximum dynamic memory allocated : Node    0 =   207 MB
* Maximum dynamic memory allocated : Node    1 =    74 MB
* Maximum dynamic memory allocated : Node    2 =    76 MB
* Maximum dynamic memory allocated : Node    3 =   196 MB
* Maximum dynamic memory allocated : Node    4 =   207 MB
* Maximum dynamic memory allocated : Node    5 =    74 MB
* Maximum dynamic memory allocated : Node    6 =    76 MB
* Maximum dynamic memory allocated : Node    7 =   191 MB

* Maximum memory occured during matrixMtoO                    

timer: CPU execution times:
timer:  Routine       Calls   Time/call    Tot.time        %
timer:  siesta            1    9018.674    9018.674   100.00
timer:  Setup             1       3.150       3.150     0.03
timer:  bands             3     292.335     877.006     9.72
timer:  writewave         1       0.017       0.017     0.00
timer:  KSV_init          1       0.001       0.001     0.00
timer:  IterMD            1    8129.923    8129.923    90.15
timer:  hsparse           1       0.263       0.263     0.00
timer:  overlap           1       4.588       4.588     0.05
timer:  IterSCF           1    7954.276    7954.276    88.20
timer:  kinefsm           2       2.384       4.768     0.05
timer:  nlefsm            2      19.411      38.821     0.43
timer:  DHSCF             2     127.820     255.639     2.83
timer:  DHSCF1            1       0.814       0.814     0.01
timer:  DHSCF2            1      35.169      35.169     0.39
timer:  REORD            18       0.015       0.272     0.00
timer:  POISON            3       3.718      11.155     0.12
timer:  DHSCF3            2      93.366     186.732     2.07
timer:  rhoofd            2      17.589      35.178     0.39
timer:  cellXC            2       3.612       7.224     0.08
timer:  vmat              2      47.478      94.956     1.05
timer:  MolMec            2       0.001       0.001     0.00
timer:  diagon            1    7786.377    7786.377    86.34
timer:  c-eigval        473       7.252    3430.323    38.04
timer:  c-buildHS       473       0.211      99.705     1.11
timer:  cdiag           825       7.345    6059.790    67.19
timer:  cdiag1          825       0.467     384.901     4.27
timer:  cdiag2          825       1.981    1633.962    18.12
timer:  cdiag3          825       4.176    3445.399    38.20
timer:  cdiag4          825       0.213     175.914     1.95
timer:  c-eigvec        352       7.842    2760.431    30.61
timer:  c-buildD        352       7.012    2468.316    27.37
timer:  DHSCF4            1      32.718      32.718     0.36
timer:  dfscf             1      30.865      30.865     0.34
timer:  overfsm           1       0.380       0.380     0.00
timer:  optical           1       7.506       7.506     0.08
  

elaps: ELAPSED times:
elaps:  Routine       Calls   Time/call    Tot.time        %
elaps:  siesta            1    1129.138    1129.138   100.00
elaps:  Setup             1       0.393       0.393     0.03
elaps:  bands             3      36.601     109.804     9.72
elaps:  writewave         1       0.002       0.002     0.00
elaps:  KSV_init          1       0.000       0.000     0.00
elaps:  IterMD            1    1017.922    1017.922    90.15
elaps:  hsparse           1       0.032       0.032     0.00
elaps:  overlap           1       0.518       0.518     0.05
elaps:  IterSCF           1     995.947     995.947    88.20
elaps:  kinefsm           2       0.273       0.546     0.05
elaps:  nlefsm            2       2.368       4.736     0.42
elaps:  DHSCF             2      17.627      35.255     3.12
elaps:  DHSCF1            1       0.103       0.103     0.01
elaps:  DHSCF2            1       4.402       4.402     0.39
elaps:  REORD            18       0.002       0.034     0.00
elaps:  POISON            3       0.469       1.407     0.12
elaps:  DHSCF3            2      11.682      23.363     2.07
elaps:  rhoofd            2       3.743       7.486     0.66
elaps:  cellXC            2       0.451       0.901     0.08
elaps:  vmat              2       5.941      11.881     1.05
elaps:  MolMec            2       0.000       0.000     0.00
elaps:  diagon            1     974.965     974.965    86.35
elaps:  c-eigval        473       0.908     429.308    38.02
elaps:  c-buildHS       473       0.028      13.134     1.16
elaps:  cdiag           825       0.906     747.567    66.21
elaps:  cdiag1          825       0.057      47.348     4.19
elaps:  cdiag2          825       0.248     204.459    18.11
elaps:  cdiag3          825       0.523     431.866    38.25
elaps:  cdiag4          825       0.027      22.346     1.98
elaps:  c-eigvec        352       0.954     335.883    29.75
elaps:  c-buildD        352       0.906     318.819    28.24
elaps:  DHSCF4            1       7.359       7.359     0.65
elaps:  dfscf             1       6.979       6.979     0.62
elaps:  overfsm           1       0.048       0.048     0.00
elaps:  optical           1       0.000       0.000     0.00
  
>> End of run:   9-DEC-2015  17:12:59
