Siesta Version:                                        siesta-3.2-pl-3
Architecture  : x86_64-unknown-linux-gnu--unknown
Compiler flags: mpiifort -g -O2 -fPIC -xSSE4.1 -fp-model source -shared-intel 
PARALLEL version

* Running on    8 nodes in parallel
>> Start of run:  28-NOV-2015  13:20:14

                           ***********************       
                           *  WELCOME TO SIESTA  *       
                           ***********************       

reinit: Reading from standard input
************************** Dump of input data file ****************************
#(1) General system descriptors
SystemName            GRP_doping    # Descriptive name of the system
SystemLabel           GRP_doping    # Short name for naming files
%include STRUCT.fdf
%include KPT.fdf
%include BASIS.fdf
#%include TS.fdf # for transiesta calculation
#(4) DFT, Grid, SCF
XC.functional         GGA           # LDA or GGA (default = LDA)
XC.authors            PBE           # CA (Ceperley-Aldr) = PZ
                                    #    (Perdew-Zunger) - LDA - Default
                                    # PW92 (Perdew-Wang-92) - LDA
                                    # PBE (Perdew-Burke-Ernzerhof) - GGA
MeshCutoff            200.000000    Ry      # Default: 50.0 Ry ~ 0.444 Bohr
                                    #         100.0 Ry ~ 0.314 Bohr
MaxSCFIterations      500           # Default: 50
DM.MixingWeight       0.05          # Default: 0.25
DM.NumberPulay        10            # Default: 0
DM.PulayOnFile        F             # SystemLabel.P1, SystemLabel.P2
DM.Tolerance          1.d-4         # Default: 1.d-4
DM.UseSaveDM          .true.        # because of the bug
SCFMustConverge       .true.
NeglNonOverlapInt     F             # Default: F
#(5) Eigenvalue problem: order-N or diagonalization
SolutionMethod        Diagon        # or Transiesta
ElectronicTemperature 300.0 K       # Default: 300.0 K
#(6) Molecular dynamics and relaxations
#MD.TypeOfRun          CG            # Type of dynamics:
#MD.VariableCell       F
#MD.NumCGsteps         0           # 0 for single-point / 100 for gopt
#MD.MaxCGDispl         0.2 Bohr      # Default: 0.2 Bohr
#MD.MaxForceTol        0.02 eV/Ang   # Default: 0.04 eV/Ang
#MD.MaxStressTol       1.0 GPa       # Default: 1.0 GPa
# Geometry Constraints
#%block GeometryConstraints
#	position from 1 to 44
#%endblock GeometryConstraints
************************** End of input data file *****************************

reinit: -----------------------------------------------------------------------
reinit: System Name: GRP_doping
reinit: -----------------------------------------------------------------------
reinit: System Label: GRP_doping                                                  
reinit: -----------------------------------------------------------------------

initatom: Reading input for the pseudopotentials and atomic orbitals ----------
 Species number:            1  Label: C Atomic number:           6
 Species number:            2  Label: B Atomic number:           5
Ground state valence configuration:   2s02  2p02
Reading pseudopotential information in formatted form from C.psf

Valence configuration for pseudopotential generation:
2s( 2.00) rc: 1.54
2p( 2.00) rc: 1.54
3d( 0.00) rc: 1.54
4f( 0.00) rc: 1.54
Ground state valence configuration:   2s02  2p01
Reading pseudopotential information in formatted form from B.psf

Valence configuration for pseudopotential generation:
2s( 2.00) rc: 1.74
2p( 1.00) rc: 1.74
3d( 0.00) rc: 1.74
4f( 0.00) rc: 1.74
For C, standard SIESTA heuristics set lmxkb to 3
 (one more than the basis l, including polarization orbitals).
Use PS.lmax or PS.KBprojectors blocks to override.
For B, standard SIESTA heuristics set lmxkb to 3
 (one more than the basis l, including polarization orbitals).
Use PS.lmax or PS.KBprojectors blocks to override.

<basis_specs>
===============================================================================
C                    Z=   6    Mass=  12.010        Charge= 0.17977+309
Lmxo=1 Lmxkb= 3    BasisType=split      Semic=F
L=0  Nsemic=0  Cnfigmx=2
          n=1  nzeta=2  polorb=0
            splnorm:   0.15000    
               vcte:    0.0000    
               rinn:    0.0000    
                rcs:    0.0000      0.0000    
            lambdas:    1.0000      1.0000    
L=1  Nsemic=0  Cnfigmx=2
          n=1  nzeta=2  polorb=1
            splnorm:   0.15000    
               vcte:    0.0000    
               rinn:    0.0000    
                rcs:    0.0000      0.0000    
            lambdas:    1.0000      1.0000    
-------------------------------------------------------------------------------
L=0  Nkbl=1  erefs: 0.17977+309
L=1  Nkbl=1  erefs: 0.17977+309
L=2  Nkbl=1  erefs: 0.17977+309
L=3  Nkbl=1  erefs: 0.17977+309
===============================================================================
</basis_specs>

atom: Called for C                     (Z =   6)

read_vps: Pseudopotential generation method:
read_vps: ATM3      Troullier-Martins                       
Total valence charge:    4.00000

read_vps: Pseudopotential includes a core correction:
read_vps: Pseudo-core for xc-correction

xc_check: Exchange-correlation functional:
xc_check: GGA Perdew, Burke & Ernzerhof 1996
V l=0 = -2*Zval/r beyond r=  1.5227
V l=1 = -2*Zval/r beyond r=  1.5227
V l=2 = -2*Zval/r beyond r=  1.5227
V l=3 = -2*Zval/r beyond r=  1.5038
All V_l potentials equal beyond r=  1.5227
This should be close to max(r_c) in ps generation
All pots = -2*Zval/r beyond r=  1.5227

VLOCAL1: 99.0% of the norm of Vloc inside     18.722 Ry
VLOCAL1: 99.9% of the norm of Vloc inside     42.668 Ry
atom: Maximum radius for 4*pi*r*r*local-pseudopot. charge    1.83678
atom: Maximum radius for r*vlocal+2*Zval:    1.58088
GHOST: No ghost state for L =  0
GHOST: No ghost state for L =  1
GHOST: No ghost state for L =  2
GHOST: No ghost state for L =  3

KBgen: Kleinman-Bylander projectors: 
   l= 0   rc=  1.704034   el= -1.009801   Ekb=  5.335044   kbcos=  0.316824
   l= 1   rc=  1.704034   el= -0.388707   Ekb= -3.785862   kbcos= -0.366464
   l= 2   rc=  1.791422   el=  0.001971   Ekb= -0.970471   kbcos= -0.009212
   l= 3   rc=  1.859892   el=  0.003065   Ekb= -0.399525   kbcos= -0.001223

KBgen: Total number of  Kleinman-Bylander projectors:   16
atom: -------------------------------------------------------------------------

atom: SANKEY-TYPE ORBITALS:
atom: Selected multiple-zeta basis: split     

SPLIT: Orbitals with angular momentum L= 0

SPLIT: Basis orbitals for state 2s

SPLIT: PAO cut-off radius determined from an
SPLIT: energy shift=  0.007350 Ry

   izeta = 1
                 lambda =    1.000000
                     rc =    4.632753
                 energy =   -1.002270
                kinetic =    0.855760
    potential(screened) =   -1.858031
       potential(ionic) =   -5.417575

   izeta = 2
                 rmatch =    3.431921
              splitnorm =    0.150000
                 energy =   -0.867111
                kinetic =    1.300804
    potential(screened) =   -2.167915
       potential(ionic) =   -5.962684

SPLIT: Orbitals with angular momentum L= 1

SPLIT: Basis orbitals for state 2p

SPLIT: PAO cut-off radius determined from an
SPLIT: energy shift=  0.007350 Ry

   izeta = 1
                 lambda =    1.000000
                     rc =    5.658549
                 energy =   -0.381140
                kinetic =    2.399701
    potential(screened) =   -2.780841
       potential(ionic) =   -6.206085

   izeta = 2
                 rmatch =    3.653288
              splitnorm =    0.150000
                 energy =   -0.249149
                kinetic =    3.542762
    potential(screened) =   -3.791911
       potential(ionic) =   -7.581078

POLgen: Perturbative polarization orbital with L=  2

POLgen: Polarization orbital for state 2p

   izeta = 1
                     rc =    5.658549
                 energy =    1.109913
                kinetic =    2.304789
    potential(screened) =   -1.194876
       potential(ionic) =   -4.013592
atom: Total number of Sankey-type orbitals: 13

atm_pop: Valence configuration (for local Pseudopot. screening):
 2s( 2.00)                                                            
 2p( 2.00)                                                            
Vna: chval, zval:    4.00000   4.00000

Vna:  Cut-off radius for the neutral-atom potential:   5.658549
comcore: Pseudo-core radius Rcore=  1.791422

atom: _________________________________________________________________________

<basis_specs>
===============================================================================
B                    Z=   5    Mass=  10.810        Charge= 0.17977+309
Lmxo=1 Lmxkb= 3    BasisType=split      Semic=F
L=0  Nsemic=0  Cnfigmx=2
          n=1  nzeta=2  polorb=0
            splnorm:   0.15000    
               vcte:    0.0000    
               rinn:    0.0000    
                rcs:    0.0000      0.0000    
            lambdas:    1.0000      1.0000    
L=1  Nsemic=0  Cnfigmx=2
          n=1  nzeta=2  polorb=1
            splnorm:   0.15000    
               vcte:    0.0000    
               rinn:    0.0000    
                rcs:    0.0000      0.0000    
            lambdas:    1.0000      1.0000    
-------------------------------------------------------------------------------
L=0  Nkbl=1  erefs: 0.17977+309
L=1  Nkbl=1  erefs: 0.17977+309
L=2  Nkbl=1  erefs: 0.17977+309
L=3  Nkbl=1  erefs: 0.17977+309
===============================================================================
</basis_specs>

atom: Called for B                     (Z =   5)

read_vps: Pseudopotential generation method:
read_vps: ATM3      Troullier-Martins                       
Total valence charge:    3.00000

read_vps: Pseudopotential includes a core correction:
read_vps: Pseudo-core for xc-correction

xc_check: Exchange-correlation functional:
xc_check: GGA Perdew, Burke & Ernzerhof 1996
V l=0 = -2*Zval/r beyond r=  1.7165
V l=1 = -2*Zval/r beyond r=  1.7165
V l=2 = -2*Zval/r beyond r=  1.7165
V l=3 = -2*Zval/r beyond r=  1.6951
All V_l potentials equal beyond r=  1.7165
This should be close to max(r_c) in ps generation
All pots = -2*Zval/r beyond r=  1.7165

VLOCAL1: 99.0% of the norm of Vloc inside     14.733 Ry
VLOCAL1: 99.9% of the norm of Vloc inside     33.577 Ry
atom: Maximum radius for 4*pi*r*r*local-pseudopot. charge    2.04484
atom: Maximum radius for r*vlocal+2*Zval:    1.75994
GHOST: No ghost state for L =  0
GHOST: No ghost state for L =  1
GHOST: No ghost state for L =  2
GHOST: No ghost state for L =  3

KBgen: Kleinman-Bylander projectors: 
   l= 0   rc=  1.897051   el= -0.693730   Ekb=  4.595746   kbcos=  0.286105
   l= 1   rc=  1.920920   el= -0.265236   Ekb= -2.350715   kbcos= -0.315747
   l= 2   rc=  2.044840   el=  0.002055   Ekb= -0.690767   kbcos= -0.013822
   l= 3   rc=  2.149707   el=  0.003188   Ekb= -0.315358   kbcos= -0.002055

KBgen: Total number of  Kleinman-Bylander projectors:   16
atom: -------------------------------------------------------------------------

atom: SANKEY-TYPE ORBITALS:
atom: Selected multiple-zeta basis: split     

SPLIT: Orbitals with angular momentum L= 0

SPLIT: Basis orbitals for state 2s

SPLIT: PAO cut-off radius determined from an
SPLIT: energy shift=  0.007350 Ry

   izeta = 1
                 lambda =    1.000000
                     rc =    5.422032
                 energy =   -0.686029
                kinetic =    0.576707
    potential(screened) =   -1.262736
       potential(ionic) =   -3.271094

   izeta = 2
                 rmatch =    4.222573
              splitnorm =    0.150000
                 energy =   -0.602132
                kinetic =    0.858975
    potential(screened) =   -1.461107
       potential(ionic) =   -3.582536

SPLIT: Orbitals with angular momentum L= 1

SPLIT: Basis orbitals for state 2p

SPLIT: PAO cut-off radius determined from an
SPLIT: energy shift=  0.007350 Ry

   izeta = 1
                 lambda =    1.000000
                     rc =    6.790259
                 energy =   -0.258578
                kinetic =    1.481412
    potential(screened) =   -1.739989
       potential(ionic) =   -3.657461

   izeta = 2
                 rmatch =    4.608740
              splitnorm =    0.150000
                 energy =   -0.173757
                kinetic =    2.186690
    potential(screened) =   -2.360447
       potential(ionic) =   -4.464260

POLgen: Perturbative polarization orbital with L=  2

POLgen: Polarization orbital for state 2p

   izeta = 1
                     rc =    6.790259
                 energy =    0.684082
                kinetic =    1.471481
    potential(screened) =   -0.787399
       potential(ionic) =   -2.406985
atom: Total number of Sankey-type orbitals: 13

atm_pop: Valence configuration (for local Pseudopot. screening):
 2s( 2.00)                                                            
 2p( 1.00)                                                            
Vna: chval, zval:    3.00000   3.00000

Vna:  Cut-off radius for the neutral-atom potential:   6.790259
comcore: Pseudo-core radius Rcore=  2.122997

atom: _________________________________________________________________________

prinput: Basis input ----------------------------------------------------------

PAO.BasisType split     

%block ChemicalSpeciesLabel
    1    6 C                       # Species index, atomic number, species label
    2    5 B                       # Species index, atomic number, species label
%endblock ChemicalSpeciesLabel

%block PAO.Basis                 # Define Basis set
C                     2                    # Species label, number of l-shells
 n=2   0   2                         # n, l, Nzeta 
   4.633      3.432   
   1.000      1.000   
 n=2   1   2 P   1                   # n, l, Nzeta, Polarization, NzetaPol
   5.659      3.653   
   1.000      1.000   
B                     2                    # Species label, number of l-shells
 n=2   0   2                         # n, l, Nzeta 
   5.422      4.223   
   1.000      1.000   
 n=2   1   2 P   1                   # n, l, Nzeta, Polarization, NzetaPol
   6.790      4.609   
   1.000      1.000   
%endblock PAO.Basis

prinput: ----------------------------------------------------------------------

coor:   Atomic-coordinates input format  =     Cartesian coordinates
coor:                                          (in Angstroms)

siesta: Atomic coordinates (Bohr) and species
siesta:      2.23554   1.32097   0.00000  1        1
siesta:     32.50328  21.48508   0.00000  1        2
siesta:     34.83141  22.82873   0.00000  1        3
siesta:     34.83116  17.45226   0.00000  1        4
siesta:     37.15930  18.79590   0.00000  1        5
siesta:     32.50291  13.41944   0.00000  1        6
siesta:     34.83104  14.76308   0.00000  1        7
siesta:     30.17465   9.38661   0.00000  1        8
siesta:     32.50278  10.73026   0.00000  1        9
siesta:     27.84639   5.35379   0.00000  1       10
siesta:     30.17453   6.69743   0.00000  1       11
siesta:     27.84714  21.48508   0.00000  1       12
siesta:     30.17527  22.82873   0.00000  1       13
siesta:      6.89168   1.32097   0.00000  1       14
siesta:      9.21981   2.66461   0.00000  1       15
siesta:     13.87595   2.66461   0.00000  1       16
siesta:     16.20396   1.32097   0.00000  1       17
siesta:     18.53210   2.66461   0.00000  1       18
siesta:     23.19013   2.66461   0.00000  1       19
siesta:     25.51813   1.32097   0.00000  1       20
siesta:     27.84627   2.66461   0.00000  1       21
siesta:      4.56380   5.35379   0.00000  1       22
siesta:      6.89193   6.69743   0.00000  1       23
siesta:      9.21994   5.35379   0.00000  1       24
siesta:     11.54807   6.69743   0.00000  1       25
siesta:     13.87608   5.35379   0.00000  1       26
siesta:     16.20421   6.69743   0.00000  1       27
siesta:     18.53411   5.35379   0.00000  1       28
siesta:     20.86224   6.69743   0.00000  1       29
siesta:     23.19025   5.35379   0.00000  1       30
siesta:     25.51838   6.69743   0.00000  1       31
siesta:      9.22019  10.73026   0.00000  1       32
siesta:     11.54820   9.38661   0.00000  1       33
siesta:     13.87633  10.73026   0.00000  1       34
siesta:     18.53247  10.73026   0.00000  1       35
siesta:     20.86237   9.38661   0.00000  1       36
siesta:     23.19050  10.73026   0.00000  1       37
siesta:      9.22031  13.41944   0.00000  1       38
siesta:     11.54845  14.76308   0.00000  1       39
siesta:     13.87645  13.41944   0.00000  1       40
siesta:     16.20459  14.76308   0.00000  1       41
siesta:     18.53448  13.41944   0.00000  1       42
siesta:     20.86262  14.76308   0.00000  1       43
siesta:     13.87670  18.79590   0.00000  1       44
siesta:     16.20471  17.45226   0.00000  1       45
siesta:     18.53284  18.79590   0.00000  1       46
siesta:     13.87683  21.48508   0.00000  1       47
siesta:     16.20496  22.82873   0.00000  1       48
siesta:     18.53486  21.48508   0.00000  1       49
siesta:     20.86299  22.82873   0.00000  1       50
siesta:     27.84664  10.73026   0.00000  1       51
siesta:     23.19063  13.41944   0.00000  1       52
siesta:     25.51876  14.76308   0.00000  1       53
siesta:     23.19088  18.79590   0.00000  1       54
siesta:     27.84677  13.41944   0.00000  1       55
siesta:     30.17490  14.76308   0.00000  1       56
siesta:     25.51888  17.45226   0.00000  1       57
siesta:     27.84702  18.79590   0.00000  1       58
siesta:     23.19100  21.48508   0.00000  1       59
siesta:     25.51913  22.82873   0.00000  1       60
siesta:     30.17503  17.45226   0.00000  1       61
siesta:     37.16131  21.48508   0.00000  1       62
siesta:     39.48945  22.82873   0.00000  1       63
siesta:      4.56367   2.66461   0.00000  2       64
siesta:     11.54782   1.32097   0.00000  2       65
siesta:     20.86199   1.32097   0.00000  2       66
siesta:      6.89205   9.38661   0.00000  2       67
siesta:     16.20434   9.38661   0.00000  2       68
siesta:     11.54857  17.45226   0.00000  2       69
siesta:     25.51851   9.38661   0.00000  2       70
siesta:     20.86274  17.45226   0.00000  2       71
siesta:     32.50316  18.79590   0.00000  2       72

siesta: System type = slab      

initatomlists: Number of atoms, orbitals, and projectors:     72   936  1152

siesta: ******************** Simulation parameters ****************************
siesta:
siesta: The following are some of the parameters of the simulation.
siesta: A complete list of the parameters used, including default values,
siesta: can be found in file out.fdf
siesta:
redata: Non-Collinear-spin run           =     F
redata: SpinPolarized (Up/Down) run      =     F
redata: Number of spin components        =     1
redata: Long output                      =     F
redata: Number of Atomic Species         =        2
redata: Charge density info will appear in .RHO file
redata: Write Mulliken Pop.              =     NO
redata: Mesh Cutoff                      =   200.0000  Ry
redata: Net charge of the system         =     0.0000 |e|
redata: Max. number of SCF Iter          =      500
redata: SCF convergence failure will abort job
redata: Performing Pulay mixing using    =    10 iterations
redata: Mix DM in first SCF step ?       =     F
redata: Write Pulay info on disk?        =     F
redata: Discard 1st Pulay DM after  kick =     F
redata: New DM Mixing Weight             =     0.0500
redata: New DM Occupancy tolerance       = 0.000000000001
redata: No kicks to SCF
redata: DM Mixing Weight for Kicks       =     0.5000
redata: DM Tolerance for SCF             =     0.000100
redata: Require Energy convergence for SCF =     F
redata: DM Energy tolerance for SCF      =     0.000100 eV
redata: Require Harris convergence for SCF =     F
redata: DM Harris energy tolerance for SCF =     0.000100 eV
redata: Using Saved Data (generic)   =     F
redata: Use continuation files for DM    =     T
redata: Neglect nonoverlap interactions  =     F
redata: Method of Calculation            =     Diagonalization
redata: Divide and Conquer               =     T
redata: Electronic Temperature           =     0.0019  Ry
redata: Fix the spin of the system       =     F
redata: Dynamics option                  =     Verlet MD run
redata: Initial MD time step             =        1
redata:   Final MD time step             =        1
redata: Length of MD time step           =     1.0000  fs
redata: Initial Temperature of MD run    =     0.0000  K
redata: Perform a MD quench              =     F
redata: ***********************************************************************
Total number of electrons:   279.000000
Total ionic charge:   279.000000

* ProcessorY, Blocksize:    2  24

k-point displ. along   1 input, could be:     0.00    0.50
k-point displ. along   2 input, could be:     0.00    0.50
 Kpoints in:          364 . Kpoints trimmed:          352

siesta: k-grid: Number of k-points =   352
siesta: k-grid: Cutoff (effective) =     5.000 Ang
siesta: k-grid: Supercell and displacements
siesta: k-grid:   26   0   0      0.000
siesta: k-grid:    0  26   0      0.000
siesta: k-grid:    0   0   1      0.000
Naive supercell factors:     2    2    2

superc: Internal auxiliary supercell:     2 x     2 x     2  =       8
superc: Number of atoms, orbitals, and projectors:    576   7488   9216

* Maximum dynamic memory allocated =     6 MB

siesta:                 ==============================
                            Begin MD step =      1
                        ==============================

superc: Internal auxiliary supercell:     2 x     2 x     2  =       8
superc: Number of atoms, orbitals, and projectors:    576   7488   9216

outcell: Unit cell vectors (Ang):
       14.785000    0.000000    0.000000
        7.393000   12.805052    0.000000
        0.000000    0.000000   10.000000

outcell: Cell vector modules (Ang)   :   14.785000   14.786000   10.000000
outcell: Cell angles (23,13,12) (deg):     90.0000     90.0000     60.0000
outcell: Cell volume (Ang**3)        :   1893.2269
New_DM. Step:     1
Initializing Density Matrix...

InitMesh: MESH =   120 x   120 x    90 =     1296000
InitMesh: Mesh cutoff (required, used) =   200.000   223.865 Ry

* Maximum dynamic memory allocated =   208 MB

stepf: Fermi-Dirac step function

siesta: Program's energy decomposition (eV):
siesta: Ebs     =     -4462.160968
siesta: Eions   =     17250.500670
siesta: Ena     =      3769.690812
siesta: Ekin    =      5903.534022
siesta: Enl     =       294.155113
siesta: DEna    =        -0.000010
siesta: DUscf   =         0.000000
siesta: DUext   =         0.000000
siesta: Exc     =     -3961.786956
siesta: eta*DQ  =         0.000000
siesta: Emadel  =         0.000000
siesta: Emeta   =         0.000000
siesta: Emolmec =         0.000000
siesta: Ekinion =         0.000000
siesta: Eharris =    -11173.074338
siesta: Etot    =    -11244.907689
siesta: FreeEng =    -11244.907689

siesta: iscf   Eharris(eV)      E_KS(eV)   FreeEng(eV)   dDmax  Ef(eV)
siesta:    1   -11173.0743   -11244.9077   -11244.9077  1.8850 -8.0967
timer: Routine,Calls,Time,% = IterSCF        1    8232.259  99.87
elaps: Routine,Calls,Wall,% = IterSCF        1    1031.048  99.90
siesta:    2   -11170.4472   -11128.7612   -11128.7922  0.2844 -4.3292
siesta:    3   -11151.7056   -11160.5661   -11160.6325  0.4256 -5.5720
siesta:    4   -11149.7808   -11156.4713   -11156.4947  0.3512 -5.5624
siesta:    5   -11149.2738   -11146.1713   -11146.1956  0.1324 -5.7511
siesta:    6   -11148.5805   -11144.4743   -11144.5002  0.0937 -5.8302
siesta:    7   -11146.6581   -11142.6126   -11142.6448  0.0823 -5.8629
siesta:    8   -11146.0436   -11142.5366   -11142.5640  0.0372 -5.9067
siesta:    9   -11145.4476   -11142.5532   -11142.5843  0.0138 -5.9551
siesta:   10   -11145.3421   -11142.9273   -11142.9574  0.0099 -5.9649
siesta:   11   -11145.3070   -11143.3353   -11143.3658  0.0067 -5.9718
siesta:   12   -11145.3050   -11143.9599   -11143.9906  0.0050 -5.9668
siesta:   13   -11145.3053   -11144.3470   -11144.3783  0.0053 -5.9658
siesta:   14   -11145.3048   -11145.0394   -11145.0709  0.0018 -5.9640
siesta:   15   -11145.3046   -11145.1544   -11145.1854  0.0015 -5.9633
siesta:   16   -11145.3041   -11145.2916   -11145.3226  0.0005 -5.9625
siesta:   17   -11145.3040   -11145.2816   -11145.3126  0.0003 -5.9623
siesta:   18   -11145.3040   -11145.2889   -11145.3199  0.0003 -5.9620
siesta:   19   -11145.3040   -11145.3062   -11145.3372  0.0003 -5.9623
siesta:   20   -11145.3040   -11145.3051   -11145.3360  0.0002 -5.9624
siesta:   21   -11145.3040   -11145.3095   -11145.3404  0.0001 -5.9624
siesta:   22   -11145.3040   -11145.3093   -11145.3403  0.0001 -5.9624
siesta:   23   -11145.3040   -11145.3074   -11145.3383  0.0001 -5.9625

siesta: E_KS(eV) =           -11145.3058

siesta: E_KS - E_eggbox =    -11145.3058

siesta: Atomic forces (eV/Ang):
----------------------------------------
   Tot    0.186557   -0.147217    0.000000
----------------------------------------
   Max    3.544420
   Res    1.238640    sqrt( Sum f_i^2 / 3N )
----------------------------------------
   Max    3.544420    constrained

Stress-tensor-Voigt (kbar):     -119.27     -117.78       -0.25       -1.01        0.00        0.00
(Free)E + p*V (eV/cell)   -11051.8653
Target enthalpy (eV/cell)   -11145.3368

siesta: Stress tensor (static) (eV/Ang**3):
        -0.074443   -0.000633    0.000000
        -0.000633   -0.073515    0.000000
         0.000000    0.000000   -0.000157

siesta: Pressure (static):         79.10276447  kBar

siesta: Stress tensor (total) (eV/Ang**3):
        -0.074443   -0.000633    0.000000
        -0.000633   -0.073515    0.000000
         0.000000    0.000000   -0.000157

siesta: Pressure (total):         79.10276447  kBar

siesta: Temp_ion =       0.000 K

* Maximum dynamic memory allocated =   223 MB

siesta: Program's energy decomposition (eV):
siesta: Ebs     =     -3690.959427
siesta: Eions   =     17250.500670
siesta: Ena     =      3769.690812
siesta: Ekin    =      7407.276018
siesta: Enl     =      -692.123455
siesta: DEna    =      -342.255574
siesta: DUscf   =        36.402201
siesta: DUext   =         0.000000
siesta: Exc     =     -4073.795160
siesta: eta*DQ  =         0.000000
siesta: Emadel  =         0.000000
siesta: Emeta   =         0.000000
siesta: Emolmec =         0.000000
siesta: Ekinion =         0.000000
siesta: Eharris =    -11145.304005
siesta: Etot    =    -11145.305828
siesta: FreeEng =    -11145.336790

siesta: Final energy (eV):
siesta:  Band Struct. =   -3690.959427
siesta:       Kinetic =    7407.276018
siesta:       Hartree =   21691.713882
siesta:    Ext. field =       0.000000
siesta:   Exch.-corr. =   -4073.795160
siesta:  Ion-electron =  -50122.271302
siesta:       Ion-ion =   13951.770734
siesta:       Ekinion =       0.000000
siesta:         Total =  -11145.305828

siesta: Atomic forces (eV/Ang):
siesta:      1   -3.263182   -1.908341    0.000000
siesta:      2    0.029426    3.429001    0.000000
siesta:      3   -0.223055   -2.861409    0.000000
siesta:      4    3.000737   -1.715669    0.000000
siesta:      5   -2.608553    1.227206    0.000000
siesta:      6   -0.343966   -0.707214    0.000000
siesta:      7    0.269469    0.713761    0.000000
siesta:      8   -0.395737    1.393586    0.000000
siesta:      9   -2.976279    1.989830    0.000000
siesta:     10   -0.671213    0.056448    0.000000
siesta:     11    0.579369   -0.084928    0.000000
siesta:     12   -0.766720    0.032275    0.000000
siesta:     13    0.736716   -0.109212    0.000000
siesta:     14    3.125137   -1.627505    0.000000
siesta:     15   -2.814470    1.130198    0.000000
siesta:     16    2.985141    1.581869    0.000000
siesta:     17   -0.217390    1.494934    0.000000
siesta:     18   -2.767670    1.578509    0.000000
siesta:     19    2.763551    1.717468    0.000000
siesta:     20   -0.059281    0.500721    0.000000
siesta:     21    0.420589   -0.982773    0.000000
siesta:     22    0.167503    3.477256    0.000000
siesta:     23   -0.433062   -2.982932    0.000000
siesta:     24   -0.628896   -0.379500    0.000000
siesta:     25   -0.244514   -0.133944    0.000000
siesta:     26    1.105770   -0.538095    0.000000
siesta:     27   -0.057867   -3.157394    0.000000
siesta:     28   -0.974564   -0.565370    0.000000
siesta:     29   -0.043082    0.052184    0.000000
siesta:     30    0.886609   -0.651695    0.000000
siesta:     31    0.257154   -3.491681    0.000000
siesta:     32    2.861400    1.800926    0.000000
siesta:     33    0.098814    1.202240    0.000000
siesta:     34   -2.784127    1.518011    0.000000
siesta:     35    2.730791    1.551460    0.000000
siesta:     36   -0.113993    1.013986    0.000000
siesta:     37   -2.667797    1.682891    0.000000
siesta:     38    1.198429   -0.965762    0.000000
siesta:     39   -0.036800   -3.210872    0.000000
siesta:     40   -0.944907   -0.550983    0.000000
siesta:     41    0.046343   -0.057267    0.000000
siesta:     42    0.802414   -0.592471    0.000000
siesta:     43    0.114757   -3.129959    0.000000
siesta:     44    2.865811    1.536192    0.000000
siesta:     45   -0.106174    1.069746    0.000000
siesta:     46   -2.860597    1.969692    0.000000
siesta:     47    0.449924   -0.332284    0.000000
siesta:     48   -0.610435    0.863791    0.000000
siesta:     49   -0.311167   -0.627040    0.000000
siesta:     50    0.206010    0.559814    0.000000
siesta:     51    3.009499    1.525844    0.000000
siesta:     52   -1.204234   -0.712869    0.000000
siesta:     53    0.479292    0.284648    0.000000
siesta:     54    2.821206    1.850688    0.000000
siesta:     55    0.364062   -0.228523    0.000000
siesta:     56   -0.682161    0.901618    0.000000
siesta:     57   -0.007445    0.408867    0.000000
siesta:     58    0.438043   -1.033827    0.000000
siesta:     59    1.021697   -1.059815    0.000000
siesta:     60    0.222290   -3.544420    0.000000
siesta:     61   -3.283412   -1.912294    0.000000
siesta:     62   -0.934773   -0.523086    0.000000
siesta:     63    0.179681    0.149867    0.000000
siesta:     64   -0.345260   -0.180023    0.000000
siesta:     65    0.134576    0.044178    0.000000
siesta:     66    0.134954   -0.029684    0.000000
siesta:     67    0.123482    0.061355    0.000000
siesta:     68    0.024621   -0.002973    0.000000
siesta:     69    0.073034    0.140824    0.000000
siesta:     70    0.069086    0.101923    0.000000
siesta:     71    0.100401   -0.001438    0.000000
siesta:     72   -0.328450   -0.167778    0.000000
siesta: ----------------------------------------
siesta:    Tot    0.186557   -0.147217    0.000000

siesta: Stress tensor (static) (eV/Ang**3):
siesta:    -0.074443   -0.000633    0.000000
siesta:    -0.000633   -0.073515    0.000000
siesta:     0.000000    0.000000   -0.000157

siesta: Cell volume =       1893.226895 Ang**3

siesta: Pressure (static):
siesta:                Solid            Molecule  Units
siesta:           0.00053772          0.00063142  Ry/Bohr**3
siesta:           0.04937153          0.05797475  eV/Ang**3
siesta:          79.10276447         92.88678817  kBar
(Free)E+ p_basis*V_orbitals  =      -11111.755591
(Free)Eharris+ p_basis*V_orbitals  =      -11111.752234

siesta: Electric dipole (a.u.)  =    0.000000    0.000000    0.000000
siesta: Electric dipole (Debye) =    0.000000    0.000000    0.000000

* Maximum dynamic memory allocated : Node    0 =   221 MB
* Maximum dynamic memory allocated : Node    1 =    80 MB
* Maximum dynamic memory allocated : Node    2 =    84 MB
* Maximum dynamic memory allocated : Node    3 =   211 MB
* Maximum dynamic memory allocated : Node    4 =   223 MB
* Maximum dynamic memory allocated : Node    5 =    81 MB
* Maximum dynamic memory allocated : Node    6 =    83 MB
* Maximum dynamic memory allocated : Node    7 =   205 MB

* Maximum memory occured during matrixMtoO                    

timer: CPU execution times:
timer:  Routine       Calls   Time/call    Tot.time        %
timer:  siesta            1  188116.935  188116.935   100.00
timer:  Setup             1       3.089       3.089     0.00
timer:  bands             1       0.006       0.006     0.00
timer:  writewave         1       0.019       0.019     0.00
timer:  KSV_init          1       0.000       0.000     0.00
timer:  IterMD            1  188105.687  188105.687    99.99
timer:  hsparse           1       0.403       0.403     0.00
timer:  overlap           1       6.402       6.402     0.00
timer:  IterSCF          23    8169.811  187905.645    99.89
timer:  kinefsm           2       3.314       6.628     0.00
timer:  nlefsm            2      20.264      40.528     0.02
timer:  DHSCF            24     109.371    2624.902     1.40
timer:  DHSCF1            1       1.044       1.044     0.00
timer:  DHSCF2            1      43.159      43.159     0.02
timer:  REORD           194       0.014       2.640     0.00
timer:  POISON           25       3.670      91.756     0.05
timer:  DHSCF3           24     105.873    2540.942     1.35
timer:  rhoofd           24      20.557     493.364     0.26
timer:  cellXC           24       3.608      86.587     0.05
timer:  vmat             24      54.157    1299.768     0.69
timer:  MolMec            2       0.001       0.001     0.00
timer:  diagon           23    8058.960  185356.074    98.53
timer:  c-eigval       8096       7.241   58620.224    31.16
timer:  c-buildHS      8096       0.221    1788.188     0.95
timer:  cdiag         16192       7.463  120834.033    64.23
timer:  cdiag1        16192       0.465    7534.441     4.01
timer:  cdiag2        16192       1.978   32021.667    17.02
timer:  cdiag3        16192       4.165   67432.835    35.85
timer:  cdiag4        16192       0.277    4479.158     2.38
timer:  c-eigvec       8096       7.984   64640.976    34.36
timer:  c-buildD       8096       7.658   61999.451    32.96
timer:  DHSCF4            1      37.574      37.574     0.02
timer:  dfscf             1      35.027      35.027     0.02
timer:  overfsm           1       0.430       0.430     0.00
timer:  optical           1       7.131       7.131     0.00
  

elaps: ELAPSED times:
elaps:  Routine       Calls   Time/call    Tot.time        %
elaps:  siesta            1   23551.561   23551.561   100.00
elaps:  Setup             1       0.386       0.386     0.00
elaps:  bands             1       0.001       0.001     0.00
elaps:  writewave         1       0.002       0.002     0.00
elaps:  KSV_init          1       0.000       0.000     0.00
elaps:  IterMD            1   23550.153   23550.153    99.99
elaps:  hsparse           1       0.049       0.049     0.00
elaps:  overlap           1       0.528       0.528     0.00
elaps:  IterSCF          23    1022.846   23525.466    99.89
elaps:  kinefsm           2       0.278       0.556     0.00
elaps:  nlefsm            2       2.591       5.182     0.02
elaps:  DHSCF            24      13.838     332.107     1.41
elaps:  DHSCF1            1       0.136       0.136     0.00
elaps:  DHSCF2            1       5.404       5.404     0.02
elaps:  REORD           194       0.002       0.335     0.00
elaps:  POISON           25       0.461      11.535     0.05
elaps:  DHSCF3           24      13.247     317.919     1.35
elaps:  rhoofd           24       4.455     106.909     0.45
elaps:  cellXC           24       0.451      10.814     0.05
elaps:  vmat             24       6.776     162.625     0.69
elaps:  MolMec            2       0.000       0.000     0.00
elaps:  diagon           23    1009.000   23207.000    98.54
elaps:  c-eigval       8096       0.906    7335.327    31.15
elaps:  c-buildHS      8096       0.029     235.328     1.00
elaps:  cdiag         16192       0.913   14778.279    62.75
elaps:  cdiag1        16192       0.057     922.841     3.92
elaps:  cdiag2        16192       0.247    4006.503    17.01
elaps:  cdiag3        16192       0.522    8451.113    35.88
elaps:  cdiag4        16192       0.035     563.976     2.39
elaps:  c-eigvec       8096       0.961    7777.746    33.02
elaps:  c-buildD       8096       0.998    8080.885    34.31
elaps:  DHSCF4            1       8.349       8.349     0.04
elaps:  dfscf             1       7.866       7.866     0.03
elaps:  overfsm           1       0.052       0.052     0.00
elaps:  optical           1       0.000       0.000     0.00
  
>> End of run:  28-NOV-2015  19:52:46
