Siesta Version:                                        siesta-3.2-pl-3
Architecture  : x86_64-unknown-linux-gnu--unknown
Compiler flags: mpiifort -g -O2 -fPIC -xSSE4.1 -fp-model source -shared-intel 
PARALLEL version

* Running on    8 nodes in parallel
>> Start of run:   1-DEC-2015   7:53:37

                           ***********************       
                           *  WELCOME TO SIESTA  *       
                           ***********************       

reinit: Reading from standard input
************************** Dump of input data file ****************************
#(1) General system descriptors
SystemName            GRP_doping    # Descriptive name of the system
SystemLabel           GRP_doping    # Short name for naming files
%include STRUCT.fdf
%include KPT.fdf
%include BASIS.fdf
#%include TS.fdf # for transiesta calculation
#(4) DFT, Grid, SCF
XC.functional         GGA           # LDA or GGA (default = LDA)
XC.authors            PBE           # CA (Ceperley-Aldr) = PZ
                                    #    (Perdew-Zunger) - LDA - Default
                                    # PW92 (Perdew-Wang-92) - LDA
                                    # PBE (Perdew-Burke-Ernzerhof) - GGA
MeshCutoff            200.000000    Ry      # Default: 50.0 Ry ~ 0.444 Bohr
                                    #         100.0 Ry ~ 0.314 Bohr
MaxSCFIterations      500           # Default: 50
DM.MixingWeight       0.05          # Default: 0.25
DM.NumberPulay        10            # Default: 0
DM.PulayOnFile        F             # SystemLabel.P1, SystemLabel.P2
DM.Tolerance          1.d-4         # Default: 1.d-4
DM.UseSaveDM          .true.        # because of the bug
SCFMustConverge       .true.
NeglNonOverlapInt     F             # Default: F
#(5) Eigenvalue problem: order-N or diagonalization
SolutionMethod        Diagon        # or Transiesta
ElectronicTemperature 300.0 K       # Default: 300.0 K
#(6) Molecular dynamics and relaxations
#MD.TypeOfRun          CG            # Type of dynamics:
#MD.VariableCell       F
#MD.NumCGsteps         0           # 0 for single-point / 100 for gopt
#MD.MaxCGDispl         0.2 Bohr      # Default: 0.2 Bohr
#MD.MaxForceTol        0.02 eV/Ang   # Default: 0.04 eV/Ang
#MD.MaxStressTol       1.0 GPa       # Default: 1.0 GPa
# Geometry Constraints
#%block GeometryConstraints
#	position from 1 to 44
#%endblock GeometryConstraints
************************** End of input data file *****************************

reinit: -----------------------------------------------------------------------
reinit: System Name: GRP_doping
reinit: -----------------------------------------------------------------------
reinit: System Label: GRP_doping                                                  
reinit: -----------------------------------------------------------------------

initatom: Reading input for the pseudopotentials and atomic orbitals ----------
 Species number:            1  Label: C Atomic number:           6
 Species number:            2  Label: N Atomic number:           7
Ground state valence configuration:   2s02  2p02
Reading pseudopotential information in formatted form from C.psf

Valence configuration for pseudopotential generation:
2s( 2.00) rc: 1.54
2p( 2.00) rc: 1.54
3d( 0.00) rc: 1.54
4f( 0.00) rc: 1.54
Ground state valence configuration:   2s02  2p03
Reading pseudopotential information in formatted form from N.psf

Valence configuration for pseudopotential generation:
2s( 2.00) rc: 1.48
2p( 3.00) rc: 1.48
3d( 0.00) rc: 1.48
4f( 0.00) rc: 1.48
For C, standard SIESTA heuristics set lmxkb to 3
 (one more than the basis l, including polarization orbitals).
Use PS.lmax or PS.KBprojectors blocks to override.
For N, standard SIESTA heuristics set lmxkb to 3
 (one more than the basis l, including polarization orbitals).
Use PS.lmax or PS.KBprojectors blocks to override.

<basis_specs>
===============================================================================
C                    Z=   6    Mass=  12.010        Charge= 0.17977+309
Lmxo=1 Lmxkb= 3    BasisType=split      Semic=F
L=0  Nsemic=0  Cnfigmx=2
          n=1  nzeta=2  polorb=0
            splnorm:   0.15000    
               vcte:    0.0000    
               rinn:    0.0000    
                rcs:    0.0000      0.0000    
            lambdas:    1.0000      1.0000    
L=1  Nsemic=0  Cnfigmx=2
          n=1  nzeta=2  polorb=1
            splnorm:   0.15000    
               vcte:    0.0000    
               rinn:    0.0000    
                rcs:    0.0000      0.0000    
            lambdas:    1.0000      1.0000    
-------------------------------------------------------------------------------
L=0  Nkbl=1  erefs: 0.17977+309
L=1  Nkbl=1  erefs: 0.17977+309
L=2  Nkbl=1  erefs: 0.17977+309
L=3  Nkbl=1  erefs: 0.17977+309
===============================================================================
</basis_specs>

atom: Called for C                     (Z =   6)

read_vps: Pseudopotential generation method:
read_vps: ATM3      Troullier-Martins                       
Total valence charge:    4.00000

read_vps: Pseudopotential includes a core correction:
read_vps: Pseudo-core for xc-correction

xc_check: Exchange-correlation functional:
xc_check: GGA Perdew, Burke & Ernzerhof 1996
V l=0 = -2*Zval/r beyond r=  1.5227
V l=1 = -2*Zval/r beyond r=  1.5227
V l=2 = -2*Zval/r beyond r=  1.5227
V l=3 = -2*Zval/r beyond r=  1.5038
All V_l potentials equal beyond r=  1.5227
This should be close to max(r_c) in ps generation
All pots = -2*Zval/r beyond r=  1.5227

VLOCAL1: 99.0% of the norm of Vloc inside     18.722 Ry
VLOCAL1: 99.9% of the norm of Vloc inside     42.668 Ry
atom: Maximum radius for 4*pi*r*r*local-pseudopot. charge    1.83678
atom: Maximum radius for r*vlocal+2*Zval:    1.58088
GHOST: No ghost state for L =  0
GHOST: No ghost state for L =  1
GHOST: No ghost state for L =  2
GHOST: No ghost state for L =  3

KBgen: Kleinman-Bylander projectors: 
   l= 0   rc=  1.704034   el= -1.009801   Ekb=  5.335044   kbcos=  0.316824
   l= 1   rc=  1.704034   el= -0.388707   Ekb= -3.785862   kbcos= -0.366464
   l= 2   rc=  1.791422   el=  0.001971   Ekb= -0.970471   kbcos= -0.009212
   l= 3   rc=  1.859892   el=  0.003065   Ekb= -0.399525   kbcos= -0.001223

KBgen: Total number of  Kleinman-Bylander projectors:   16
atom: -------------------------------------------------------------------------

atom: SANKEY-TYPE ORBITALS:
atom: Selected multiple-zeta basis: split     

SPLIT: Orbitals with angular momentum L= 0

SPLIT: Basis orbitals for state 2s

SPLIT: PAO cut-off radius determined from an
SPLIT: energy shift=  0.007350 Ry

   izeta = 1
                 lambda =    1.000000
                     rc =    4.632753
                 energy =   -1.002270
                kinetic =    0.855760
    potential(screened) =   -1.858031
       potential(ionic) =   -5.417575

   izeta = 2
                 rmatch =    3.431921
              splitnorm =    0.150000
                 energy =   -0.867111
                kinetic =    1.300804
    potential(screened) =   -2.167915
       potential(ionic) =   -5.962684

SPLIT: Orbitals with angular momentum L= 1

SPLIT: Basis orbitals for state 2p

SPLIT: PAO cut-off radius determined from an
SPLIT: energy shift=  0.007350 Ry

   izeta = 1
                 lambda =    1.000000
                     rc =    5.658549
                 energy =   -0.381140
                kinetic =    2.399701
    potential(screened) =   -2.780841
       potential(ionic) =   -6.206085

   izeta = 2
                 rmatch =    3.653288
              splitnorm =    0.150000
                 energy =   -0.249149
                kinetic =    3.542762
    potential(screened) =   -3.791911
       potential(ionic) =   -7.581078

POLgen: Perturbative polarization orbital with L=  2

POLgen: Polarization orbital for state 2p

   izeta = 1
                     rc =    5.658549
                 energy =    1.109913
                kinetic =    2.304789
    potential(screened) =   -1.194876
       potential(ionic) =   -4.013592
atom: Total number of Sankey-type orbitals: 13

atm_pop: Valence configuration (for local Pseudopot. screening):
 2s( 2.00)                                                            
 2p( 2.00)                                                            
Vna: chval, zval:    4.00000   4.00000

Vna:  Cut-off radius for the neutral-atom potential:   5.658549
comcore: Pseudo-core radius Rcore=  1.791422

atom: _________________________________________________________________________

<basis_specs>
===============================================================================
N                    Z=   7    Mass=  14.010        Charge= 0.17977+309
Lmxo=1 Lmxkb= 3    BasisType=split      Semic=F
L=0  Nsemic=0  Cnfigmx=2
          n=1  nzeta=2  polorb=0
            splnorm:   0.15000    
               vcte:    0.0000    
               rinn:    0.0000    
                rcs:    0.0000      0.0000    
            lambdas:    1.0000      1.0000    
L=1  Nsemic=0  Cnfigmx=2
          n=1  nzeta=2  polorb=1
            splnorm:   0.15000    
               vcte:    0.0000    
               rinn:    0.0000    
                rcs:    0.0000      0.0000    
            lambdas:    1.0000      1.0000    
-------------------------------------------------------------------------------
L=0  Nkbl=1  erefs: 0.17977+309
L=1  Nkbl=1  erefs: 0.17977+309
L=2  Nkbl=1  erefs: 0.17977+309
L=3  Nkbl=1  erefs: 0.17977+309
===============================================================================
</basis_specs>

atom: Called for N                     (Z =   7)

read_vps: Pseudopotential generation method:
read_vps: ATM3      Troullier-Martins                       
Total valence charge:    5.00000

read_vps: Pseudopotential includes a core correction:
read_vps: Pseudo-core for xc-correction

xc_check: Exchange-correlation functional:
xc_check: GGA Perdew, Burke & Ernzerhof 1996
V l=0 = -2*Zval/r beyond r=  1.4606
V l=1 = -2*Zval/r beyond r=  1.4606
V l=2 = -2*Zval/r beyond r=  1.4606
V l=3 = -2*Zval/r beyond r=  1.4606
All V_l potentials equal beyond r=  1.4606
This should be close to max(r_c) in ps generation
All pots = -2*Zval/r beyond r=  1.4606

VLOCAL1: 99.0% of the norm of Vloc inside     20.347 Ry
VLOCAL1: 99.9% of the norm of Vloc inside     46.372 Ry
atom: Maximum radius for 4*pi*r*r*local-pseudopot. charge    1.76189
atom: Maximum radius for r*vlocal+2*Zval:    1.53550
GHOST: No ghost state for L =  0
GHOST: No ghost state for L =  1
GHOST: No ghost state for L =  2
GHOST: No ghost state for L =  3

KBgen: Kleinman-Bylander projectors: 
   l= 0   rc=  1.634559   el= -1.363963   Ekb=  5.296955   kbcos=  0.335621
   l= 1   rc=  1.614250   el= -0.521451   Ekb= -5.259161   kbcos= -0.433408
   l= 2   rc=  1.718383   el=  0.001991   Ekb= -1.271464   kbcos= -0.007566
   l= 3   rc=  1.761893   el=  0.003093   Ekb= -0.494769   kbcos= -0.001015

KBgen: Total number of  Kleinman-Bylander projectors:   16
atom: -------------------------------------------------------------------------

atom: SANKEY-TYPE ORBITALS:
atom: Selected multiple-zeta basis: split     

SPLIT: Orbitals with angular momentum L= 0

SPLIT: Basis orbitals for state 2s

SPLIT: PAO cut-off radius determined from an
SPLIT: energy shift=  0.007350 Ry

   izeta = 1
                 lambda =    1.000000
                     rc =    4.071465
                 energy =   -1.356470
                kinetic =    1.176977
    potential(screened) =   -2.533447
       potential(ionic) =   -8.057990

   izeta = 2
                 rmatch =    2.905100
              splitnorm =    0.150000
                 energy =   -1.158343
                kinetic =    1.813009
    potential(screened) =   -2.971352
       potential(ionic) =   -8.901931

SPLIT: Orbitals with angular momentum L= 1

SPLIT: Basis orbitals for state 2p

SPLIT: PAO cut-off radius determined from an
SPLIT: energy shift=  0.007350 Ry

   izeta = 1
                 lambda =    1.000000
                     rc =    4.972977
                 energy =   -0.513884
                kinetic =    3.441732
    potential(screened) =   -3.955616
       potential(ionic) =   -9.287901

   izeta = 2
                 rmatch =    3.054066
              splitnorm =    0.150000
                 energy =   -0.318226
                kinetic =    5.125348
    potential(screened) =   -5.443573
       potential(ionic) =  -11.380999

POLgen: Perturbative polarization orbital with L=  2

POLgen: Polarization orbital for state 2p

   izeta = 1
                     rc =    4.972977
                 energy =    1.607437
                kinetic =    3.268125
    potential(screened) =   -1.660688
       potential(ionic) =   -5.973652
atom: Total number of Sankey-type orbitals: 13

atm_pop: Valence configuration (for local Pseudopot. screening):
 2s( 2.00)                                                            
 2p( 3.00)                                                            
Vna: chval, zval:    5.00000   5.00000

Vna:  Cut-off radius for the neutral-atom potential:   4.972977
comcore: Pseudo-core radius Rcore=  1.554824

atom: _________________________________________________________________________

prinput: Basis input ----------------------------------------------------------

PAO.BasisType split     

%block ChemicalSpeciesLabel
    1    6 C                       # Species index, atomic number, species label
    2    7 N                       # Species index, atomic number, species label
%endblock ChemicalSpeciesLabel

%block PAO.Basis                 # Define Basis set
C                     2                    # Species label, number of l-shells
 n=2   0   2                         # n, l, Nzeta 
   4.633      3.432   
   1.000      1.000   
 n=2   1   2 P   1                   # n, l, Nzeta, Polarization, NzetaPol
   5.659      3.653   
   1.000      1.000   
N                     2                    # Species label, number of l-shells
 n=2   0   2                         # n, l, Nzeta 
   4.071      2.905   
   1.000      1.000   
 n=2   1   2 P   1                   # n, l, Nzeta, Polarization, NzetaPol
   4.973      3.054   
   1.000      1.000   
%endblock PAO.Basis

prinput: ----------------------------------------------------------------------

coor:   Atomic-coordinates input format  =     Cartesian coordinates
coor:                                          (in Angstroms)

siesta: Atomic coordinates (Bohr) and species
siesta:      2.23554   1.32097   0.00000  1        1
siesta:      4.56367   2.66461   0.00000  1        2
siesta:     32.50328  21.48508   0.00000  1        3
siesta:     34.83141  22.82873   0.00000  1        4
siesta:     34.83116  17.45226   0.00000  1        5
siesta:     37.15930  18.79590   0.00000  1        6
siesta:     32.50291  13.41944   0.00000  1        7
siesta:     34.83104  14.76308   0.00000  1        8
siesta:     30.17465   9.38661   0.00000  1        9
siesta:     32.50278  10.73026   0.00000  1       10
siesta:     27.84639   5.35379   0.00000  1       11
siesta:     30.17453   6.69743   0.00000  1       12
siesta:     27.84714  21.48508   0.00000  1       13
siesta:     30.17527  22.82873   0.00000  1       14
siesta:      6.89168   1.32097   0.00000  1       15
siesta:      9.21981   2.66461   0.00000  1       16
siesta:     11.54782   1.32097   0.00000  1       17
siesta:     13.87595   2.66461   0.00000  1       18
siesta:     18.53210   2.66461   0.00000  1       19
siesta:     23.19013   2.66461   0.00000  1       20
siesta:     25.51813   1.32097   0.00000  1       21
siesta:     27.84627   2.66461   0.00000  1       22
siesta:      6.89193   6.69743   0.00000  1       23
siesta:      9.21994   5.35379   0.00000  1       24
siesta:     11.54807   6.69743   0.00000  1       25
siesta:     13.87608   5.35379   0.00000  1       26
siesta:     16.20421   6.69743   0.00000  1       27
siesta:     18.53411   5.35379   0.00000  1       28
siesta:     20.86224   6.69743   0.00000  1       29
siesta:     23.19025   5.35379   0.00000  1       30
siesta:     25.51838   6.69743   0.00000  1       31
siesta:      9.22019  10.73026   0.00000  1       32
siesta:     11.54820   9.38661   0.00000  1       33
siesta:     13.87633  10.73026   0.00000  1       34
siesta:     18.53247  10.73026   0.00000  1       35
siesta:     20.86237   9.38661   0.00000  1       36
siesta:     23.19050  10.73026   0.00000  1       37
siesta:      9.22031  13.41944   0.00000  1       38
siesta:     11.54845  14.76308   0.00000  1       39
siesta:     13.87645  13.41944   0.00000  1       40
siesta:     16.20459  14.76308   0.00000  1       41
siesta:     18.53448  13.41944   0.00000  1       42
siesta:     20.86262  14.76308   0.00000  1       43
siesta:     13.87670  18.79590   0.00000  1       44
siesta:     16.20471  17.45226   0.00000  1       45
siesta:     18.53284  18.79590   0.00000  1       46
siesta:     13.87683  21.48508   0.00000  1       47
siesta:     16.20496  22.82873   0.00000  1       48
siesta:     18.53486  21.48508   0.00000  1       49
siesta:     20.86299  22.82873   0.00000  1       50
siesta:     27.84664  10.73026   0.00000  1       51
siesta:     23.19063  13.41944   0.00000  1       52
siesta:     25.51876  14.76308   0.00000  1       53
siesta:     23.19088  18.79590   0.00000  1       54
siesta:     27.84677  13.41944   0.00000  1       55
siesta:     30.17490  14.76308   0.00000  1       56
siesta:     25.51888  17.45226   0.00000  1       57
siesta:     27.84702  18.79590   0.00000  1       58
siesta:     23.19100  21.48508   0.00000  1       59
siesta:     25.51913  22.82873   0.00000  1       60
siesta:     32.50316  18.79590   0.00000  1       61
siesta:     37.16131  21.48508   0.00000  1       62
siesta:     39.48945  22.82873   0.00000  1       63
siesta:     16.20396   1.32097   0.00000  2       64
siesta:     20.86199   1.32097   0.00000  2       65
siesta:      4.56380   5.35379   0.00000  2       66
siesta:      6.89205   9.38661   0.00000  2       67
siesta:     16.20434   9.38661   0.00000  2       68
siesta:     11.54857  17.45226   0.00000  2       69
siesta:     25.51851   9.38661   0.00000  2       70
siesta:     20.86274  17.45226   0.00000  2       71
siesta:     30.17503  17.45226   0.00000  2       72

siesta: System type = slab      

initatomlists: Number of atoms, orbitals, and projectors:     72   936  1152

siesta: ******************** Simulation parameters ****************************
siesta:
siesta: The following are some of the parameters of the simulation.
siesta: A complete list of the parameters used, including default values,
siesta: can be found in file out.fdf
siesta:
redata: Non-Collinear-spin run           =     F
redata: SpinPolarized (Up/Down) run      =     F
redata: Number of spin components        =     1
redata: Long output                      =     F
redata: Number of Atomic Species         =        2
redata: Charge density info will appear in .RHO file
redata: Write Mulliken Pop.              =     NO
redata: Mesh Cutoff                      =   200.0000  Ry
redata: Net charge of the system         =     0.0000 |e|
redata: Max. number of SCF Iter          =      500
redata: SCF convergence failure will abort job
redata: Performing Pulay mixing using    =    10 iterations
redata: Mix DM in first SCF step ?       =     F
redata: Write Pulay info on disk?        =     F
redata: Discard 1st Pulay DM after  kick =     F
redata: New DM Mixing Weight             =     0.0500
redata: New DM Occupancy tolerance       = 0.000000000001
redata: No kicks to SCF
redata: DM Mixing Weight for Kicks       =     0.5000
redata: DM Tolerance for SCF             =     0.000100
redata: Require Energy convergence for SCF =     F
redata: DM Energy tolerance for SCF      =     0.000100 eV
redata: Require Harris convergence for SCF =     F
redata: DM Harris energy tolerance for SCF =     0.000100 eV
redata: Using Saved Data (generic)   =     F
redata: Use continuation files for DM    =     T
redata: Neglect nonoverlap interactions  =     F
redata: Method of Calculation            =     Diagonalization
redata: Divide and Conquer               =     T
redata: Electronic Temperature           =     0.0019  Ry
redata: Fix the spin of the system       =     F
redata: Dynamics option                  =     Verlet MD run
redata: Initial MD time step             =        1
redata:   Final MD time step             =        1
redata: Length of MD time step           =     1.0000  fs
redata: Initial Temperature of MD run    =     0.0000  K
redata: Perform a MD quench              =     F
redata: ***********************************************************************
Total number of electrons:   297.000000
Total ionic charge:   297.000000

* ProcessorY, Blocksize:    2  24

k-point displ. along   1 input, could be:     0.00    0.50
k-point displ. along   2 input, could be:     0.00    0.50
 Kpoints in:          364 . Kpoints trimmed:          352

siesta: k-grid: Number of k-points =   352
siesta: k-grid: Cutoff (effective) =     5.000 Ang
siesta: k-grid: Supercell and displacements
siesta: k-grid:   26   0   0      0.000
siesta: k-grid:    0  26   0      0.000
siesta: k-grid:    0   0   1      0.000
Naive supercell factors:     2    2    2

superc: Internal auxiliary supercell:     2 x     2 x     2  =       8
superc: Number of atoms, orbitals, and projectors:    576   7488   9216

* Maximum dynamic memory allocated =     6 MB

siesta:                 ==============================
                            Begin MD step =      1
                        ==============================

superc: Internal auxiliary supercell:     2 x     2 x     2  =       8
superc: Number of atoms, orbitals, and projectors:    576   7488   9216

outcell: Unit cell vectors (Ang):
       14.785000    0.000000    0.000000
        7.393000   12.805052    0.000000
        0.000000    0.000000   10.000000

outcell: Cell vector modules (Ang)   :   14.785000   14.786000   10.000000
outcell: Cell angles (23,13,12) (deg):     90.0000     90.0000     60.0000
outcell: Cell volume (Ang**3)        :   1893.2269
New_DM. Step:     1
Initializing Density Matrix...

iodm: Reading Density Matrix from files
 Read DM has different structure. Fixing...

InitMesh: MESH =   120 x   120 x    90 =     1296000
InitMesh: Mesh cutoff (required, used) =   200.000   223.865 Ry

* Maximum dynamic memory allocated =   187 MB

stepf: Fermi-Dirac step function

siesta: Program's energy decomposition (eV):
siesta: Ebs     =     -4314.735749
siesta: Eions   =     19849.732669
siesta: Ena     =      4064.199184
siesta: Ekin    =      8470.723113
siesta: Enl     =      -986.800265
siesta: DEna    =      -307.394153
siesta: DUscf   =       168.832685
siesta: DUext   =         0.000000
siesta: Exc     =     -4275.809874
siesta: eta*DQ  =         0.000000
siesta: Emadel  =         0.000000
siesta: Emeta   =         0.000000
siesta: Emolmec =         0.000000
siesta: Ekinion =         0.000000
siesta: Eharris =    -13149.069893
siesta: Etot    =    -12715.981979
siesta: FreeEng =    -12715.981979

siesta: iscf   Eharris(eV)      E_KS(eV)   FreeEng(eV)   dDmax  Ef(eV)
siesta:    1   -13149.0699   -12715.9820   -12715.9820  1.0249 -2.5184
timer: Routine,Calls,Time,% = IterSCF        1    6647.821  99.83
elaps: Routine,Calls,Wall,% = IterSCF        1     831.953  99.82
siesta:    2   -26754.7778   -10449.9330   -10449.9900110.9727-17.8694
siesta:    3   -12948.4771   -12730.7509   -12730.7921  1.0386 -3.3287
siesta:    4   -12867.4427   -12740.1761   -12740.1994  1.0989 -2.9641
siesta:    5   -12820.3384   -12746.0464   -12746.0759  0.9272 -3.0221
siesta:    6   -12761.1632   -12750.0408   -12750.0758  0.5021 -2.9712
siesta:    7   -12747.7054   -12748.4942   -12748.5455  0.4494 -2.9852
siesta:    8   -12741.7980   -12743.8026   -12743.8527  0.3599 -3.0536
siesta:    9   -12742.4957   -12739.1145   -12739.1530  0.2342 -3.2723
siesta:   10   -12742.8512   -12737.3187   -12737.3533  0.1397 -3.5340
siesta:   11   -12740.7682   -12737.1053   -12737.1406  0.0878 -3.5764
siesta:   12   -12739.8831   -12736.7177   -12736.7565  0.0863 -3.5479
siesta:   13   -12739.6914   -12736.8265   -12736.8708  0.0541 -3.5176
siesta:   14   -12739.6515   -12737.1418   -12737.1844  0.0392 -3.5032
siesta:   15   -12739.6046   -12737.7008   -12737.7421  0.0286 -3.4607
siesta:   16   -12739.5857   -12738.0617   -12738.1032  0.0187 -3.4371
siesta:   17   -12739.5568   -12738.4147   -12738.4571  0.0106 -3.4182
siesta:   18   -12739.5502   -12738.6467   -12738.6890  0.0081 -3.4133
siesta:   19   -12739.5486   -12738.8706   -12738.9128  0.0062 -3.4145
siesta:   20   -12739.5485   -12739.0318   -12739.0738  0.0048 -3.4163
siesta:   21   -12739.5486   -12739.2994   -12739.3413  0.0019 -3.4190
siesta:   22   -12739.5480   -12739.4362   -12739.4782  0.0010 -3.4187
siesta:   23   -12739.5478   -12739.4851   -12739.5271  0.0007 -3.4190
siesta:   24   -12739.5478   -12739.5181   -12739.5601  0.0007 -3.4195
siesta:   25   -12739.5477   -12739.5276   -12739.5696  0.0003 -3.4194
siesta:   26   -12739.5477   -12739.5308   -12739.5727  0.0002 -3.4196
siesta:   27   -12739.5477   -12739.5361   -12739.5781  0.0001 -3.4195

siesta: E_KS(eV) =           -12739.5380

siesta: E_KS - E_eggbox =    -12739.5380

siesta: Atomic forces (eV/Ang):
----------------------------------------
   Tot    0.177837   -0.335654    0.000000
----------------------------------------
   Max    1.004505
   Res    0.283011    sqrt( Sum f_i^2 / 3N )
----------------------------------------
   Max    1.004505    constrained

Stress-tensor-Voigt (kbar):        1.07        0.47        0.15        0.29        0.00        0.00
(Free)E + p*V (eV/cell)   -12740.2436
Target enthalpy (eV/cell)   -12739.5800

siesta: Stress tensor (static) (eV/Ang**3):
         0.000668    0.000184    0.000000
         0.000184    0.000292    0.000000
         0.000000    0.000000    0.000092

siesta: Pressure (static):         -0.56157223  kBar

siesta: Stress tensor (total) (eV/Ang**3):
         0.000668    0.000184    0.000000
         0.000184    0.000292    0.000000
         0.000000    0.000000    0.000092

siesta: Pressure (total):         -0.56157223  kBar

siesta: Temp_ion =       0.000 K

* Maximum dynamic memory allocated =   203 MB

siesta: Program's energy decomposition (eV):
siesta: Ebs     =     -4186.352775
siesta: Eions   =     19849.732669
siesta: Ena     =      4064.199184
siesta: Ekin    =      8579.675053
siesta: Enl     =     -1058.689840
siesta: DEna    =      -247.179016
siesta: DUscf   =        22.385384
siesta: DUext   =         0.000000
siesta: Exc     =     -4250.196080
siesta: eta*DQ  =         0.000000
siesta: Emadel  =         0.000000
siesta: Emeta   =         0.000000
siesta: Emolmec =         0.000000
siesta: Ekinion =         0.000000
siesta: Eharris =    -12739.547715
siesta: Etot    =    -12739.537985
siesta: FreeEng =    -12739.579971

siesta: Final energy (eV):
siesta:  Band Struct. =   -4186.352775
siesta:       Kinetic =    8579.675053
siesta:       Hartree =   24799.233399
siesta:    Ext. field =       0.000000
siesta:   Exch.-corr. =   -4250.196080
siesta:  Ion-electron =  -57575.892026
siesta:       Ion-ion =   15707.641669
siesta:       Ekinion =       0.000000
siesta:         Total =  -12739.537985

siesta: Atomic forces (eV/Ang):
siesta:      1    0.217350    0.435935    0.000000
siesta:      2    0.067924    0.370573    0.000000
siesta:      3   -0.112214    0.236942    0.000000
siesta:      4    0.305907    0.111996    0.000000
siesta:      5    0.072720   -0.505633    0.000000
siesta:      6    0.358212   -0.059471    0.000000
siesta:      7    0.256423   -0.112059    0.000000
siesta:      8   -0.056955    0.236868    0.000000
siesta:      9    0.283310   -0.071917    0.000000
siesta:     10    0.047809    0.192464    0.000000
siesta:     11    0.604844    0.577700    0.000000
siesta:     12    0.391317   -1.004505    0.000000
siesta:     13    0.749436    0.082351    0.000000
siesta:     14   -0.458640    0.835646    0.000000
siesta:     15   -0.180004    0.024685    0.000000
siesta:     16    0.444999   -0.198531    0.000000
siesta:     17    0.122729    0.165952    0.000000
siesta:     18    0.803820   -0.149319    0.000000
siesta:     19   -0.317191   -0.456770    0.000000
siesta:     20   -0.483031   -0.082835    0.000000
siesta:     21   -0.226725   -0.240435    0.000000
siesta:     22   -0.609113   -0.082550    0.000000
siesta:     23   -0.431885   -0.036097    0.000000
siesta:     24   -0.508000    0.666211    0.000000
siesta:     25   -0.170415   -0.632021    0.000000
siesta:     26    0.190266    0.173474    0.000000
siesta:     27   -0.103694    0.885065    0.000000
siesta:     28    0.070193   -0.257089    0.000000
siesta:     29   -0.090868   -0.109840    0.000000
siesta:     30   -0.041932    0.034451    0.000000
siesta:     31    0.081615    0.382327    0.000000
siesta:     32    0.008372   -0.401778    0.000000
siesta:     33    0.059874    0.247597    0.000000
siesta:     34    0.154090   -0.375391    0.000000
siesta:     35   -0.267828   -0.022373    0.000000
siesta:     36    0.035455   -0.314565    0.000000
siesta:     37    0.141455   -0.177909    0.000000
siesta:     38   -0.173337    0.220504    0.000000
siesta:     39   -0.049216    0.056343    0.000000
siesta:     40    0.337673    0.385849    0.000000
siesta:     41   -0.024536   -0.050016    0.000000
siesta:     42   -0.356557    0.100740    0.000000
siesta:     43    0.026528    0.361241    0.000000
siesta:     44   -0.275681   -0.210804    0.000000
siesta:     45   -0.137073   -0.291908    0.000000
siesta:     46    0.592688   -0.043909    0.000000
siesta:     47   -0.739735   -0.205048    0.000000
siesta:     48    0.382034   -0.163493    0.000000
siesta:     49    0.280657   -0.434747    0.000000
siesta:     50   -0.318610    0.462088    0.000000
siesta:     51   -0.251391   -0.722101    0.000000
siesta:     52    0.269184    0.205165    0.000000
siesta:     53    0.017065   -0.181847    0.000000
siesta:     54   -0.603751   -0.206862    0.000000
siesta:     55   -0.191346    0.434456    0.000000
siesta:     56   -0.054678    0.272088    0.000000
siesta:     57    0.120884   -0.115474    0.000000
siesta:     58    0.291026    0.018741    0.000000
siesta:     59    0.110914   -0.159339    0.000000
siesta:     60   -0.474895   -0.563476    0.000000
siesta:     61   -0.485868    0.241333    0.000000
siesta:     62   -0.190903    0.096135    0.000000
siesta:     63    0.446752    0.067931    0.000000
siesta:     64    0.715992   -0.404128    0.000000
siesta:     65   -0.547324   -0.091935    0.000000
siesta:     66    0.115356    0.939539    0.000000
siesta:     67   -0.362064   -0.400709    0.000000
siesta:     68    0.075314   -0.268386    0.000000
siesta:     69   -0.043997    0.091403    0.000000
siesta:     70    0.083293    0.257721    0.000000
siesta:     71   -0.007453   -0.096185    0.000000
siesta:     72    0.191266   -0.305708    0.000000
siesta: ----------------------------------------
siesta:    Tot    0.177837   -0.335654    0.000000

siesta: Stress tensor (static) (eV/Ang**3):
siesta:     0.000668    0.000184    0.000000
siesta:     0.000184    0.000292    0.000000
siesta:     0.000000    0.000000    0.000092

siesta: Cell volume =       1893.226895 Ang**3

siesta: Pressure (static):
siesta:                Solid            Molecule  Units
siesta:          -0.00000382         -0.00002122  Ry/Bohr**3
siesta:          -0.00035050         -0.00194809  eV/Ang**3
siesta:          -0.56157223         -3.12122600  kBar
(Free)E+ p_basis*V_orbitals  =      -12710.129024
(Free)Eharris+ p_basis*V_orbitals  =      -12710.140592

siesta: Electric dipole (a.u.)  =    0.000000    0.000000    0.000000
siesta: Electric dipole (Debye) =    0.000000    0.000000    0.000000

* Maximum dynamic memory allocated : Node    0 =   203 MB
* Maximum dynamic memory allocated : Node    1 =    74 MB
* Maximum dynamic memory allocated : Node    2 =    76 MB
* Maximum dynamic memory allocated : Node    3 =   192 MB
* Maximum dynamic memory allocated : Node    4 =   202 MB
* Maximum dynamic memory allocated : Node    5 =    74 MB
* Maximum dynamic memory allocated : Node    6 =    76 MB
* Maximum dynamic memory allocated : Node    7 =   187 MB

* Maximum memory occured during matrixMtoO                    

timer: CPU execution times:
timer:  Routine       Calls   Time/call    Tot.time        %
timer:  siesta            1  177491.795  177491.795   100.00
timer:  Setup             1       3.065       3.065     0.00
timer:  bands             1       0.009       0.009     0.00
timer:  writewave         1       0.019       0.019     0.00
timer:  KSV_init          1       0.002       0.002     0.00
timer:  IterMD            1  177480.559  177480.559    99.99
timer:  hsparse           1       0.256       0.256     0.00
timer:  overlap           1       6.336       6.336     0.00
timer:  IterSCF          27    6567.139  177312.743    99.90
timer:  kinefsm           2       3.263       6.526     0.00
timer:  nlefsm            2      18.765      37.530     0.02
timer:  DHSCF            28      87.606    2452.960     1.38
timer:  DHSCF1            1       0.759       0.759     0.00
timer:  DHSCF2            1      32.792      32.792     0.02
timer:  REORD           226       0.010       2.227     0.00
timer:  POISON           29       2.248      65.202     0.04
timer:  DHSCF3           28      85.250    2386.997     1.34
timer:  rhoofd           28      16.188     453.269     0.26
timer:  cellXC           28       3.466      97.037     0.05
timer:  vmat             28      43.490    1217.710     0.69
timer:  MolMec            2       0.000       0.000     0.00
timer:  diagon           27    6478.264  174913.137    98.55
timer:  c-eigval       9504       6.691   63590.293    35.83
timer:  c-buildHS      9504       0.117    1116.554     0.63
timer:  cdiag         19008       6.876  130694.255    73.63
timer:  cdiag1        19008       0.428    8130.545     4.58
timer:  cdiag2        19008       1.909   36293.012    20.45
timer:  cdiag3        19008       3.956   75203.869    42.37
timer:  cdiag4        19008       0.204    3868.646     2.18
timer:  c-eigvec       9504       7.250   68903.082    38.82
timer:  c-buildD       9504       4.455   42339.812    23.85
timer:  DHSCF4            1      30.936      30.936     0.02
timer:  dfscf             1      29.092      29.092     0.02
timer:  overfsm           1       0.373       0.373     0.00
timer:  optical           1       7.145       7.145     0.00
  

elaps: ELAPSED times:
elaps:  Routine       Calls   Time/call    Tot.time        %
elaps:  siesta            1   22211.825   22211.825   100.00
elaps:  Setup             1       0.382       0.382     0.00
elaps:  bands             1       0.001       0.001     0.00
elaps:  writewave         1       0.002       0.002     0.00
elaps:  KSV_init          1       0.000       0.000     0.00
elaps:  IterMD            1   22210.420   22210.420    99.99
elaps:  hsparse           1       0.032       0.032     0.00
elaps:  overlap           1       0.524       0.524     0.00
elaps:  IterSCF          27     821.831   22189.427    99.90
elaps:  kinefsm           2       0.275       0.549     0.00
elaps:  nlefsm            2       2.461       4.922     0.02
elaps:  DHSCF            28      11.077     310.161     1.40
elaps:  DHSCF1            1       0.103       0.103     0.00
elaps:  DHSCF2            1       4.097       4.097     0.02
elaps:  REORD           226       0.001       0.306     0.00
elaps:  POISON           29       0.282       8.171     0.04
elaps:  DHSCF3           28      10.666     298.635     1.34
elaps:  rhoofd           28       3.529      98.799     0.44
elaps:  cellXC           28       0.433      12.114     0.05
elaps:  vmat             28       5.441     152.338     0.69
elaps:  MolMec            2       0.000       0.000     0.00
elaps:  diagon           27     810.735   21889.839    98.55
elaps:  c-eigval       9504       0.837    7956.126    35.82
elaps:  c-buildHS      9504       0.016     155.041     0.70
elaps:  cdiag         19008       0.847   16102.179    72.49
elaps:  cdiag1        19008       0.053    1007.323     4.54
elaps:  cdiag2        19008       0.239    4541.091    20.44
elaps:  cdiag3        19008       0.496    9422.209    42.42
elaps:  cdiag4        19008       0.026     502.248     2.26
elaps:  c-eigvec       9504       0.885    8408.978    37.86
elaps:  c-buildD       9504       0.580    5513.137    24.82
elaps:  DHSCF4            1       7.127       7.127     0.03
elaps:  dfscf             1       6.735       6.735     0.03
elaps:  overfsm           1       0.048       0.048     0.00
elaps:  optical           1       0.000       0.000     0.00
  
>> End of run:   1-DEC-2015  14:03:49
