Siesta Version:                                        siesta-3.2-pl-3
Architecture  : x86_64-unknown-linux-gnu--unknown
Compiler flags: mpiifort -g -O2 -fPIC -xSSE4.1 -fp-model source -shared-intel 
PARALLEL version

* Running on    8 nodes in parallel
>> Start of run:   8-DEC-2015  14:39:34

                           ***********************       
                           *  WELCOME TO SIESTA  *       
                           ***********************       

reinit: Reading from standard input
************************** Dump of input data file ****************************
#(1) General system descriptors
SystemName            GRP_doping    # Descriptive name of the system
SystemLabel           GRP_doping    # Short name for naming files
%include STRUCT.fdf
%include KPT.fdf
%include BASIS.fdf
#%include TS.fdf # for transiesta calculation
#(4) DFT, Grid, SCF
XC.functional         GGA           # LDA or GGA (default = LDA)
XC.authors            PBE           # CA (Ceperley-Aldr) = PZ
                                    #    (Perdew-Zunger) - LDA - Default
                                    # PW92 (Perdew-Wang-92) - LDA
                                    # PBE (Perdew-Burke-Ernzerhof) - GGA
MeshCutoff            200.000000    Ry      # Default: 50.0 Ry ~ 0.444 Bohr
                                    #         100.0 Ry ~ 0.314 Bohr
MaxSCFIterations      500           # Default: 50
DM.MixingWeight       0.05          # Default: 0.25
DM.NumberPulay        10            # Default: 0
DM.PulayOnFile        F             # SystemLabel.P1, SystemLabel.P2
DM.Tolerance          1.d-4         # Default: 1.d-4
DM.UseSaveDM          .true.        # because of the bug
SCFMustConverge       .true.
NeglNonOverlapInt     F             # Default: F
#(5) Eigenvalue problem: order-N or diagonalization
SolutionMethod        Diagon        # or Transiesta
ElectronicTemperature 300.0 K       # Default: 300.0 K
#(6) Molecular dynamics and relaxations
#MD.TypeOfRun          CG            # Type of dynamics:
#MD.VariableCell       F
#MD.NumCGsteps         0           # 0 for single-point / 100 for gopt
#MD.MaxCGDispl         0.2 Bohr      # Default: 0.2 Bohr
#MD.MaxForceTol        0.02 eV/Ang   # Default: 0.04 eV/Ang
#MD.MaxStressTol       1.0 GPa       # Default: 1.0 GPa
# Geometry Constraints
#%block GeometryConstraints
#	position from 1 to 44
#%endblock GeometryConstraints
BandLinesScale   pi/a
%block BandLines
 1   0.00000000  0.00000000  0.00000000
50   0.00000000  0.07809418  0.00000000
50   0.04509075  0.07809242  0.00000000
20   0.00000000  0.00000000  0.00000000
%endblock BandLines
************************** End of input data file *****************************

reinit: -----------------------------------------------------------------------
reinit: System Name: GRP_doping
reinit: -----------------------------------------------------------------------
reinit: System Label: GRP_doping                                                  
reinit: -----------------------------------------------------------------------

initatom: Reading input for the pseudopotentials and atomic orbitals ----------
 Species number:            1  Label: C Atomic number:           6
 Species number:            2  Label: B Atomic number:           5
Ground state valence configuration:   2s02  2p02
Reading pseudopotential information in formatted form from C.psf

Valence configuration for pseudopotential generation:
2s( 2.00) rc: 1.54
2p( 2.00) rc: 1.54
3d( 0.00) rc: 1.54
4f( 0.00) rc: 1.54
Ground state valence configuration:   2s02  2p01
Reading pseudopotential information in formatted form from B.psf

Valence configuration for pseudopotential generation:
2s( 2.00) rc: 1.74
2p( 1.00) rc: 1.74
3d( 0.00) rc: 1.74
4f( 0.00) rc: 1.74
For C, standard SIESTA heuristics set lmxkb to 3
 (one more than the basis l, including polarization orbitals).
Use PS.lmax or PS.KBprojectors blocks to override.
For B, standard SIESTA heuristics set lmxkb to 3
 (one more than the basis l, including polarization orbitals).
Use PS.lmax or PS.KBprojectors blocks to override.

<basis_specs>
===============================================================================
C                    Z=   6    Mass=  12.010        Charge= 0.17977+309
Lmxo=1 Lmxkb= 3    BasisType=split      Semic=F
L=0  Nsemic=0  Cnfigmx=2
          n=1  nzeta=2  polorb=0
            splnorm:   0.15000    
               vcte:    0.0000    
               rinn:    0.0000    
                rcs:    0.0000      0.0000    
            lambdas:    1.0000      1.0000    
L=1  Nsemic=0  Cnfigmx=2
          n=1  nzeta=2  polorb=1
            splnorm:   0.15000    
               vcte:    0.0000    
               rinn:    0.0000    
                rcs:    0.0000      0.0000    
            lambdas:    1.0000      1.0000    
-------------------------------------------------------------------------------
L=0  Nkbl=1  erefs: 0.17977+309
L=1  Nkbl=1  erefs: 0.17977+309
L=2  Nkbl=1  erefs: 0.17977+309
L=3  Nkbl=1  erefs: 0.17977+309
===============================================================================
</basis_specs>

atom: Called for C                     (Z =   6)

read_vps: Pseudopotential generation method:
read_vps: ATM3      Troullier-Martins                       
Total valence charge:    4.00000

read_vps: Pseudopotential includes a core correction:
read_vps: Pseudo-core for xc-correction

xc_check: Exchange-correlation functional:
xc_check: GGA Perdew, Burke & Ernzerhof 1996
V l=0 = -2*Zval/r beyond r=  1.5227
V l=1 = -2*Zval/r beyond r=  1.5227
V l=2 = -2*Zval/r beyond r=  1.5227
V l=3 = -2*Zval/r beyond r=  1.5038
All V_l potentials equal beyond r=  1.5227
This should be close to max(r_c) in ps generation
All pots = -2*Zval/r beyond r=  1.5227

VLOCAL1: 99.0% of the norm of Vloc inside     18.722 Ry
VLOCAL1: 99.9% of the norm of Vloc inside     42.668 Ry
atom: Maximum radius for 4*pi*r*r*local-pseudopot. charge    1.83678
atom: Maximum radius for r*vlocal+2*Zval:    1.58088
GHOST: No ghost state for L =  0
GHOST: No ghost state for L =  1
GHOST: No ghost state for L =  2
GHOST: No ghost state for L =  3

KBgen: Kleinman-Bylander projectors: 
   l= 0   rc=  1.704034   el= -1.009801   Ekb=  5.335044   kbcos=  0.316824
   l= 1   rc=  1.704034   el= -0.388707   Ekb= -3.785862   kbcos= -0.366464
   l= 2   rc=  1.791422   el=  0.001971   Ekb= -0.970471   kbcos= -0.009212
   l= 3   rc=  1.859892   el=  0.003065   Ekb= -0.399525   kbcos= -0.001223

KBgen: Total number of  Kleinman-Bylander projectors:   16
atom: -------------------------------------------------------------------------

atom: SANKEY-TYPE ORBITALS:
atom: Selected multiple-zeta basis: split     

SPLIT: Orbitals with angular momentum L= 0

SPLIT: Basis orbitals for state 2s

SPLIT: PAO cut-off radius determined from an
SPLIT: energy shift=  0.007350 Ry

   izeta = 1
                 lambda =    1.000000
                     rc =    4.632753
                 energy =   -1.002270
                kinetic =    0.855760
    potential(screened) =   -1.858031
       potential(ionic) =   -5.417575

   izeta = 2
                 rmatch =    3.431921
              splitnorm =    0.150000
                 energy =   -0.867111
                kinetic =    1.300804
    potential(screened) =   -2.167915
       potential(ionic) =   -5.962684

SPLIT: Orbitals with angular momentum L= 1

SPLIT: Basis orbitals for state 2p

SPLIT: PAO cut-off radius determined from an
SPLIT: energy shift=  0.007350 Ry

   izeta = 1
                 lambda =    1.000000
                     rc =    5.658549
                 energy =   -0.381140
                kinetic =    2.399701
    potential(screened) =   -2.780841
       potential(ionic) =   -6.206085

   izeta = 2
                 rmatch =    3.653288
              splitnorm =    0.150000
                 energy =   -0.249149
                kinetic =    3.542762
    potential(screened) =   -3.791911
       potential(ionic) =   -7.581078

POLgen: Perturbative polarization orbital with L=  2

POLgen: Polarization orbital for state 2p

   izeta = 1
                     rc =    5.658549
                 energy =    1.109913
                kinetic =    2.304789
    potential(screened) =   -1.194876
       potential(ionic) =   -4.013592
atom: Total number of Sankey-type orbitals: 13

atm_pop: Valence configuration (for local Pseudopot. screening):
 2s( 2.00)                                                            
 2p( 2.00)                                                            
Vna: chval, zval:    4.00000   4.00000

Vna:  Cut-off radius for the neutral-atom potential:   5.658549
comcore: Pseudo-core radius Rcore=  1.791422

atom: _________________________________________________________________________

<basis_specs>
===============================================================================
B                    Z=   5    Mass=  10.810        Charge= 0.17977+309
Lmxo=1 Lmxkb= 3    BasisType=split      Semic=F
L=0  Nsemic=0  Cnfigmx=2
          n=1  nzeta=2  polorb=0
            splnorm:   0.15000    
               vcte:    0.0000    
               rinn:    0.0000    
                rcs:    0.0000      0.0000    
            lambdas:    1.0000      1.0000    
L=1  Nsemic=0  Cnfigmx=2
          n=1  nzeta=2  polorb=1
            splnorm:   0.15000    
               vcte:    0.0000    
               rinn:    0.0000    
                rcs:    0.0000      0.0000    
            lambdas:    1.0000      1.0000    
-------------------------------------------------------------------------------
L=0  Nkbl=1  erefs: 0.17977+309
L=1  Nkbl=1  erefs: 0.17977+309
L=2  Nkbl=1  erefs: 0.17977+309
L=3  Nkbl=1  erefs: 0.17977+309
===============================================================================
</basis_specs>

atom: Called for B                     (Z =   5)

read_vps: Pseudopotential generation method:
read_vps: ATM3      Troullier-Martins                       
Total valence charge:    3.00000

read_vps: Pseudopotential includes a core correction:
read_vps: Pseudo-core for xc-correction

xc_check: Exchange-correlation functional:
xc_check: GGA Perdew, Burke & Ernzerhof 1996
V l=0 = -2*Zval/r beyond r=  1.7165
V l=1 = -2*Zval/r beyond r=  1.7165
V l=2 = -2*Zval/r beyond r=  1.7165
V l=3 = -2*Zval/r beyond r=  1.6951
All V_l potentials equal beyond r=  1.7165
This should be close to max(r_c) in ps generation
All pots = -2*Zval/r beyond r=  1.7165

VLOCAL1: 99.0% of the norm of Vloc inside     14.733 Ry
VLOCAL1: 99.9% of the norm of Vloc inside     33.577 Ry
atom: Maximum radius for 4*pi*r*r*local-pseudopot. charge    2.04484
atom: Maximum radius for r*vlocal+2*Zval:    1.75994
GHOST: No ghost state for L =  0
GHOST: No ghost state for L =  1
GHOST: No ghost state for L =  2
GHOST: No ghost state for L =  3

KBgen: Kleinman-Bylander projectors: 
   l= 0   rc=  1.897051   el= -0.693730   Ekb=  4.595746   kbcos=  0.286105
   l= 1   rc=  1.920920   el= -0.265236   Ekb= -2.350715   kbcos= -0.315747
   l= 2   rc=  2.044840   el=  0.002055   Ekb= -0.690767   kbcos= -0.013822
   l= 3   rc=  2.149707   el=  0.003188   Ekb= -0.315358   kbcos= -0.002055

KBgen: Total number of  Kleinman-Bylander projectors:   16
atom: -------------------------------------------------------------------------

atom: SANKEY-TYPE ORBITALS:
atom: Selected multiple-zeta basis: split     

SPLIT: Orbitals with angular momentum L= 0

SPLIT: Basis orbitals for state 2s

SPLIT: PAO cut-off radius determined from an
SPLIT: energy shift=  0.007350 Ry

   izeta = 1
                 lambda =    1.000000
                     rc =    5.422032
                 energy =   -0.686029
                kinetic =    0.576707
    potential(screened) =   -1.262736
       potential(ionic) =   -3.271094

   izeta = 2
                 rmatch =    4.222573
              splitnorm =    0.150000
                 energy =   -0.602132
                kinetic =    0.858975
    potential(screened) =   -1.461107
       potential(ionic) =   -3.582536

SPLIT: Orbitals with angular momentum L= 1

SPLIT: Basis orbitals for state 2p

SPLIT: PAO cut-off radius determined from an
SPLIT: energy shift=  0.007350 Ry

   izeta = 1
                 lambda =    1.000000
                     rc =    6.790259
                 energy =   -0.258578
                kinetic =    1.481412
    potential(screened) =   -1.739989
       potential(ionic) =   -3.657461

   izeta = 2
                 rmatch =    4.608740
              splitnorm =    0.150000
                 energy =   -0.173757
                kinetic =    2.186690
    potential(screened) =   -2.360447
       potential(ionic) =   -4.464260

POLgen: Perturbative polarization orbital with L=  2

POLgen: Polarization orbital for state 2p

   izeta = 1
                     rc =    6.790259
                 energy =    0.684082
                kinetic =    1.471481
    potential(screened) =   -0.787399
       potential(ionic) =   -2.406985
atom: Total number of Sankey-type orbitals: 13

atm_pop: Valence configuration (for local Pseudopot. screening):
 2s( 2.00)                                                            
 2p( 1.00)                                                            
Vna: chval, zval:    3.00000   3.00000

Vna:  Cut-off radius for the neutral-atom potential:   6.790259
comcore: Pseudo-core radius Rcore=  2.122997

atom: _________________________________________________________________________

prinput: Basis input ----------------------------------------------------------

PAO.BasisType split     

%block ChemicalSpeciesLabel
    1    6 C                       # Species index, atomic number, species label
    2    5 B                       # Species index, atomic number, species label
%endblock ChemicalSpeciesLabel

%block PAO.Basis                 # Define Basis set
C                     2                    # Species label, number of l-shells
 n=2   0   2                         # n, l, Nzeta 
   4.633      3.432   
   1.000      1.000   
 n=2   1   2 P   1                   # n, l, Nzeta, Polarization, NzetaPol
   5.659      3.653   
   1.000      1.000   
B                     2                    # Species label, number of l-shells
 n=2   0   2                         # n, l, Nzeta 
   5.422      4.223   
   1.000      1.000   
 n=2   1   2 P   1                   # n, l, Nzeta, Polarization, NzetaPol
   6.790      4.609   
   1.000      1.000   
%endblock PAO.Basis

prinput: ----------------------------------------------------------------------

coor:   Atomic-coordinates input format  =     Cartesian coordinates
coor:                                          (in Angstroms)

siesta: Atomic coordinates (Bohr) and species
siesta:      2.23554   1.32097   0.00000  1        1
siesta:      4.56367   2.66461   0.00000  1        2
siesta:     32.50328  21.48508   0.00000  1        3
siesta:     34.83141  22.82873   0.00000  1        4
siesta:     34.83116  17.45226   0.00000  1        5
siesta:     37.15930  18.79590   0.00000  1        6
siesta:     32.50291  13.41944   0.00000  1        7
siesta:     34.83104  14.76308   0.00000  1        8
siesta:     30.17465   9.38661   0.00000  1        9
siesta:     32.50278  10.73026   0.00000  1       10
siesta:     27.84639   5.35379   0.00000  1       11
siesta:     30.17453   6.69743   0.00000  1       12
siesta:     27.84714  21.48508   0.00000  1       13
siesta:     30.17527  22.82873   0.00000  1       14
siesta:      6.89168   1.32097   0.00000  1       15
siesta:      9.21981   2.66461   0.00000  1       16
siesta:     11.54782   1.32097   0.00000  1       17
siesta:     13.87595   2.66461   0.00000  1       18
siesta:     16.20396   1.32097   0.00000  1       19
siesta:     18.53210   2.66461   0.00000  1       20
siesta:     20.86199   1.32097   0.00000  1       21
siesta:     23.19013   2.66461   0.00000  1       22
siesta:     25.51813   1.32097   0.00000  1       23
siesta:     27.84627   2.66461   0.00000  1       24
siesta:      4.56380   5.35379   0.00000  1       25
siesta:      6.89193   6.69743   0.00000  1       26
siesta:      9.21994   5.35379   0.00000  1       27
siesta:     11.54807   6.69743   0.00000  1       28
siesta:     13.87608   5.35379   0.00000  1       29
siesta:     16.20421   6.69743   0.00000  1       30
siesta:     18.53411   5.35379   0.00000  1       31
siesta:     20.86224   6.69743   0.00000  1       32
siesta:     23.19025   5.35379   0.00000  1       33
siesta:     25.51838   6.69743   0.00000  1       34
siesta:      6.89205   9.38661   0.00000  1       35
siesta:      9.22019  10.73026   0.00000  1       36
siesta:     11.54820   9.38661   0.00000  1       37
siesta:     13.87633  10.73026   0.00000  1       38
siesta:     16.20434   9.38661   0.00000  1       39
siesta:     20.86237   9.38661   0.00000  1       40
siesta:      9.22031  13.41944   0.00000  1       41
siesta:     11.54845  14.76308   0.00000  1       42
siesta:     13.87645  13.41944   0.00000  1       43
siesta:     16.20459  14.76308   0.00000  1       44
siesta:     18.53448  13.41944   0.00000  1       45
siesta:     11.54857  17.45226   0.00000  1       46
siesta:     13.87670  18.79590   0.00000  1       47
siesta:     16.20471  17.45226   0.00000  1       48
siesta:     18.53284  18.79590   0.00000  1       49
siesta:     13.87683  21.48508   0.00000  1       50
siesta:     16.20496  22.82873   0.00000  1       51
siesta:     18.53486  21.48508   0.00000  1       52
siesta:     20.86299  22.82873   0.00000  1       53
siesta:     25.51851   9.38661   0.00000  1       54
siesta:     27.84664  10.73026   0.00000  1       55
siesta:     23.19063  13.41944   0.00000  1       56
siesta:     25.51876  14.76308   0.00000  1       57
siesta:     20.86274  17.45226   0.00000  1       58
siesta:     23.19088  18.79590   0.00000  1       59
siesta:     27.84677  13.41944   0.00000  1       60
siesta:     30.17490  14.76308   0.00000  1       61
siesta:     25.51888  17.45226   0.00000  1       62
siesta:     27.84702  18.79590   0.00000  1       63
siesta:     23.19100  21.48508   0.00000  1       64
siesta:     25.51913  22.82873   0.00000  1       65
siesta:     30.17503  17.45226   0.00000  1       66
siesta:     32.50316  18.79590   0.00000  1       67
siesta:     37.16131  21.48508   0.00000  1       68
siesta:     39.48945  22.82873   0.00000  1       69
siesta:     18.53247  10.73026   0.00000  2       70
siesta:     23.19050  10.73026   0.00000  2       71
siesta:     20.86262  14.76308   0.00000  2       72

siesta: System type = slab      

initatomlists: Number of atoms, orbitals, and projectors:     72   936  1152

siesta: ******************** Simulation parameters ****************************
siesta:
siesta: The following are some of the parameters of the simulation.
siesta: A complete list of the parameters used, including default values,
siesta: can be found in file out.fdf
siesta:
redata: Non-Collinear-spin run           =     F
redata: SpinPolarized (Up/Down) run      =     F
redata: Number of spin components        =     1
redata: Long output                      =     F
redata: Number of Atomic Species         =        2
redata: Charge density info will appear in .RHO file
redata: Write Mulliken Pop.              =     NO
redata: Mesh Cutoff                      =   200.0000  Ry
redata: Net charge of the system         =     0.0000 |e|
redata: Max. number of SCF Iter          =      500
redata: SCF convergence failure will abort job
redata: Performing Pulay mixing using    =    10 iterations
redata: Mix DM in first SCF step ?       =     F
redata: Write Pulay info on disk?        =     F
redata: Discard 1st Pulay DM after  kick =     F
redata: New DM Mixing Weight             =     0.0500
redata: New DM Occupancy tolerance       = 0.000000000001
redata: No kicks to SCF
redata: DM Mixing Weight for Kicks       =     0.5000
redata: DM Tolerance for SCF             =     0.000100
redata: Require Energy convergence for SCF =     F
redata: DM Energy tolerance for SCF      =     0.000100 eV
redata: Require Harris convergence for SCF =     F
redata: DM Harris energy tolerance for SCF =     0.000100 eV
redata: Using Saved Data (generic)   =     F
redata: Use continuation files for DM    =     T
redata: Neglect nonoverlap interactions  =     F
redata: Method of Calculation            =     Diagonalization
redata: Divide and Conquer               =     T
redata: Electronic Temperature           =     0.0019  Ry
redata: Fix the spin of the system       =     F
redata: Dynamics option                  =     Verlet MD run
redata: Initial MD time step             =        1
redata:   Final MD time step             =        1
redata: Length of MD time step           =     1.0000  fs
redata: Initial Temperature of MD run    =     0.0000  K
redata: Perform a MD quench              =     F
redata: ***********************************************************************
Total number of electrons:   285.000000
Total ionic charge:   285.000000

* ProcessorY, Blocksize:    2  24

k-point displ. along   1 input, could be:     0.00    0.50
k-point displ. along   2 input, could be:     0.00    0.50
 Kpoints in:          364 . Kpoints trimmed:          352

siesta: k-grid: Number of k-points =   352
siesta: k-grid: Cutoff (effective) =     5.000 Ang
siesta: k-grid: Supercell and displacements
siesta: k-grid:   26   0   0      0.000
siesta: k-grid:    0  26   0      0.000
siesta: k-grid:    0   0   1      0.000
Naive supercell factors:     2    2    2

superc: Internal auxiliary supercell:     2 x     2 x     2  =       8
superc: Number of atoms, orbitals, and projectors:    576   7488   9216

* Maximum dynamic memory allocated =     6 MB

siesta:                 ==============================
                            Begin MD step =      1
                        ==============================

superc: Internal auxiliary supercell:     2 x     2 x     2  =       8
superc: Number of atoms, orbitals, and projectors:    576   7488   9216

outcell: Unit cell vectors (Ang):
       14.785000    0.000000    0.000000
        7.393000   12.805052    0.000000
        0.000000    0.000000   10.000000

outcell: Cell vector modules (Ang)   :   14.785000   14.786000   10.000000
outcell: Cell angles (23,13,12) (deg):     90.0000     90.0000     60.0000
outcell: Cell volume (Ang**3)        :   1893.2269
New_DM. Step:     1
Initializing Density Matrix...

iodm: Reading Density Matrix from files

InitMesh: MESH =   120 x   120 x    90 =     1296000
InitMesh: Mesh cutoff (required, used) =   200.000   223.865 Ry

* Maximum dynamic memory allocated =   200 MB

stepf: Fermi-Dirac step function

siesta: Program's energy decomposition (eV):
siesta: Ebs     =     -3855.135289
siesta: Eions   =     18018.840937
siesta: Ena     =      3907.269015
siesta: Ekin    =      7690.845464
siesta: Enl     =      -759.539220
siesta: DEna    =      -304.781118
siesta: DUscf   =        28.953395
siesta: DUext   =         0.000000
siesta: Exc     =     -4050.582352
siesta: eta*DQ  =         0.000000
siesta: Emadel  =         0.000000
siesta: Emeta   =         0.000000
siesta: Emolmec =         0.000000
siesta: Ekinion =         0.000000
siesta: Eharris =    -11506.675441
siesta: Etot    =    -11506.675754
siesta: FreeEng =    -11506.675754

siesta: iscf   Eharris(eV)      E_KS(eV)   FreeEng(eV)   dDmax  Ef(eV)
siesta:    1   -11506.6754   -11506.6758   -11506.6758  0.0001 -5.1976
timer: Routine,Calls,Time,% = IterSCF        1    8031.499  99.85
elaps: Routine,Calls,Wall,% = IterSCF        1    1005.536  99.85

siesta: E_KS(eV) =           -11506.6754

siesta: E_KS - E_eggbox =    -11506.6754

siesta: Atomic forces (eV/Ang):
----------------------------------------
   Tot    0.187942   -0.293970    0.000000
----------------------------------------
   Max    4.234238
   Res    0.710466    sqrt( Sum f_i^2 / 3N )
----------------------------------------
   Max    4.234238    constrained

Stress-tensor-Voigt (kbar):      -63.83      -62.90       -0.08       -0.47        0.00        0.00
(Free)E + p*V (eV/cell)   -11456.7517
Target enthalpy (eV/cell)   -11506.6999

siesta: Stress tensor (static) (eV/Ang**3):
        -0.039838   -0.000296    0.000000
        -0.000296   -0.039257    0.000000
         0.000000    0.000000   -0.000053

siesta: Pressure (static):         42.26998789  kBar

siesta: Stress tensor (total) (eV/Ang**3):
        -0.039838   -0.000296    0.000000
        -0.000296   -0.039257    0.000000
         0.000000    0.000000   -0.000053

siesta: Pressure (total):         42.26998789  kBar

siesta: Temp_ion =       0.000 K

* Maximum dynamic memory allocated =   214 MB
Computing bands...

siesta: Program's energy decomposition (eV):
siesta: Ebs     =     -3855.135289
siesta: Eions   =     18018.840937
siesta: Ena     =      3907.269015
siesta: Ekin    =      7690.851838
siesta: Enl     =      -759.539018
siesta: DEna    =      -304.786270
siesta: DUscf   =        28.953870
siesta: DUext   =         0.000000
siesta: Exc     =     -4050.583939
siesta: eta*DQ  =         0.000000
siesta: Emadel  =         0.000000
siesta: Emeta   =         0.000000
siesta: Emolmec =         0.000000
siesta: Ekinion =         0.000000
siesta: Eharris =    -11506.675441
siesta: Etot    =    -11506.675441
siesta: FreeEng =    -11506.699864

siesta: Final energy (eV):
siesta:  Band Struct. =   -3855.135289
siesta:       Kinetic =    7690.851838
siesta:       Hartree =   22644.018837
siesta:    Ext. field =       0.000000
siesta:   Exch.-corr. =   -4050.583939
siesta:  Ion-electron =  -52352.052719
siesta:       Ion-ion =   14561.090542
siesta:       Ekinion =       0.000000
siesta:         Total =  -11506.675441

siesta: Atomic forces (eV/Ang):
siesta:      1   -0.136050   -0.101922    0.000000
siesta:      2    0.082247    0.046915    0.000000
siesta:      3    0.069423   -0.039255    0.000000
siesta:      4    0.035711    0.051162    0.000000
siesta:      5    0.007419    0.059209    0.000000
siesta:      6    0.051265   -0.015713    0.000000
siesta:      7    0.178598   -0.067541    0.000000
siesta:      8    0.013596   -0.168106    0.000000
siesta:      9    0.088853    0.119240    0.000000
siesta:     10    0.122749   -0.019161    0.000000
siesta:     11   -0.067342   -0.145871    0.000000
siesta:     12   -0.067085    0.043441    0.000000
siesta:     13    0.044815    0.166767    0.000000
siesta:     14   -0.146866    0.107800    0.000000
siesta:     15    0.009644    0.052294    0.000000
siesta:     16   -0.086901    0.048024    0.000000
siesta:     17    0.132400   -0.103345    0.000000
siesta:     18   -0.070574   -0.088195    0.000000
siesta:     19   -0.119125   -0.151591    0.000000
siesta:     20   -0.010879    0.338981    0.000000
siesta:     21   -0.029267   -0.115921    0.000000
siesta:     22    0.044154    0.342790    0.000000
siesta:     23    0.144574   -0.152260    0.000000
siesta:     24    0.079295   -0.090378    0.000000
siesta:     25    0.067010   -0.048869    0.000000
siesta:     26   -0.003386   -0.094525    0.000000
siesta:     27   -0.067214   -0.054199    0.000000
siesta:     28    0.072966    0.045910    0.000000
siesta:     29    0.086722   -0.145267    0.000000
siesta:     30   -0.618996    0.410668    0.000000
siesta:     31    0.041289   -0.601346    0.000000
siesta:     32   -0.000747    0.850941    0.000000
siesta:     33   -0.067757   -0.610575    0.000000
siesta:     34    0.641367    0.420559    0.000000
siesta:     35   -0.007305    0.134509    0.000000
siesta:     36   -0.113145   -0.012514    0.000000
siesta:     37   -0.071538    0.120128    0.000000
siesta:     38    0.035457   -0.764054    0.000000
siesta:     39   -3.349995   -1.953733    0.000000
siesta:     40   -0.029498   -4.234238    0.000000
siesta:     41   -0.177547   -0.060439    0.000000
siesta:     42    0.272163   -0.211178    0.000000
siesta:     43   -0.468932    0.351588    0.000000
siesta:     44    0.764499   -0.424992    0.000000
siesta:     45   -3.692997    2.101962    0.000000
siesta:     46   -0.082482    0.036293    0.000000
siesta:     47    0.319410   -0.127665    0.000000
siesta:     48   -0.545270    0.222736    0.000000
siesta:     49    0.720489    0.344209    0.000000
siesta:     50   -0.012022    0.162568    0.000000
siesta:     51   -0.004355    0.122678    0.000000
siesta:     52   -0.187445    0.000316    0.000000
siesta:     53   -0.008290   -0.068110    0.000000
siesta:     54    3.361695   -1.949348    0.000000
siesta:     55   -0.040966   -0.761519    0.000000
siesta:     56    3.673452    2.096216    0.000000
siesta:     57   -0.735498   -0.419846    0.000000
siesta:     58   -0.021606    3.864349    0.000000
siesta:     59   -0.688603    0.352802    0.000000
siesta:     60    0.485448    0.350057    0.000000
siesta:     61   -0.275688   -0.212447    0.000000
siesta:     62    0.558733    0.221274    0.000000
siesta:     63   -0.325615   -0.127600    0.000000
siesta:     64    0.160698   -0.006056    0.000000
siesta:     65    0.035620    0.128331    0.000000
siesta:     66    0.083284    0.032945    0.000000
siesta:     67   -0.028545   -0.014355    0.000000
siesta:     68   -0.093462   -0.035326    0.000000
siesta:     69    0.117784    0.111042    0.000000
siesta:     70   -0.392343   -0.245786    0.000000
siesta:     71    0.433166   -0.229961    0.000000
siesta:     72   -0.002721    0.520530    0.000000
siesta: ----------------------------------------
siesta:    Tot    0.187942   -0.293970    0.000000

siesta: Stress tensor (static) (eV/Ang**3):
siesta:    -0.039838   -0.000296    0.000000
siesta:    -0.000296   -0.039257    0.000000
siesta:     0.000000    0.000000   -0.000053

siesta: Cell volume =       1893.226895 Ang**3

siesta: Pressure (static):
siesta:                Solid            Molecule  Units
siesta:           0.00028734          0.00016103  Ry/Bohr**3
siesta:           0.02638257          0.01478500  eV/Ang**3
siesta:          42.26998789         23.68843556  kBar
(Free)E+ p_basis*V_orbitals  =      -11475.014385
(Free)Eharris+ p_basis*V_orbitals  =      -11475.014073

siesta: Electric dipole (a.u.)  =    0.000000    0.000000    0.000000
siesta: Electric dipole (Debye) =    0.000000    0.000000    0.000000

* Maximum dynamic memory allocated : Node    0 =   214 MB
* Maximum dynamic memory allocated : Node    1 =    77 MB
* Maximum dynamic memory allocated : Node    2 =    80 MB
* Maximum dynamic memory allocated : Node    3 =   202 MB
* Maximum dynamic memory allocated : Node    4 =   213 MB
* Maximum dynamic memory allocated : Node    5 =    77 MB
* Maximum dynamic memory allocated : Node    6 =    80 MB
* Maximum dynamic memory allocated : Node    7 =   197 MB

* Maximum memory occured during matrixMtoO                    

timer: CPU execution times:
timer:  Routine       Calls   Time/call    Tot.time        %
timer:  siesta            1    9105.197    9105.197   100.00
timer:  Setup             1       3.163       3.163     0.03
timer:  bands             3     291.913     875.738     9.62
timer:  writewave         1       0.016       0.016     0.00
timer:  KSV_init          1       0.003       0.003     0.00
timer:  IterMD            1    8217.748    8217.748    90.25
timer:  hsparse           1       0.402       0.402     0.00
timer:  overlap           1       5.047       5.047     0.06
timer:  IterSCF           1    8031.499    8031.499    88.21
timer:  kinefsm           2       2.624       5.247     0.06
timer:  nlefsm            2      19.791      39.582     0.43
timer:  DHSCF             2     138.579     277.158     3.04
timer:  DHSCF1            1       1.054       1.054     0.01
timer:  DHSCF2            1      42.564      42.564     0.47
timer:  REORD            18       0.015       0.266     0.00
timer:  POISON            3       3.677      11.031     0.12
timer:  DHSCF3            2      99.265     198.531     2.18
timer:  rhoofd            2      18.463      36.926     0.41
timer:  cellXC            2       3.573       7.146     0.08
timer:  vmat              2      51.159     102.317     1.12
timer:  MolMec            2       0.000       0.000     0.00
timer:  diagon            1    7848.451    7848.451    86.20
timer:  c-eigval        473       7.249    3428.588    37.66
timer:  c-buildHS       473       0.215     101.607     1.12
timer:  cdiag           825       7.371    6081.206    66.79
timer:  cdiag1          825       0.458     377.781     4.15
timer:  cdiag2          825       1.982    1634.739    17.95
timer:  cdiag3          825       4.177    3446.081    37.85
timer:  cdiag4          825       0.210     172.943     1.90
timer:  c-eigvec        352       7.902    2781.486    30.55
timer:  c-buildD        352       7.130    2509.835    27.56
timer:  DHSCF4            1      34.803      34.803     0.38
timer:  dfscf             1      32.315      32.315     0.35
timer:  overfsm           1       0.404       0.404     0.00
timer:  optical           1       7.477       7.477     0.08
  

elaps: ELAPSED times:
elaps:  Routine       Calls   Time/call    Tot.time        %
elaps:  siesta            1    1139.888    1139.888   100.00
elaps:  Setup             1       0.394       0.394     0.03
elaps:  bands             3      36.548     109.645     9.62
elaps:  writewave         1       0.002       0.002     0.00
elaps:  KSV_init          1       0.000       0.000     0.00
elaps:  IterMD            1    1028.837    1028.837    90.26
elaps:  hsparse           1       0.049       0.049     0.00
elaps:  overlap           1       0.522       0.522     0.05
elaps:  IterSCF           1    1005.536    1005.536    88.21
elaps:  kinefsm           2       0.274       0.547     0.05
elaps:  nlefsm            2       2.421       4.842     0.42
elaps:  DHSCF             2      19.009      38.018     3.34
elaps:  DHSCF1            1       0.138       0.138     0.01
elaps:  DHSCF2            1       5.319       5.319     0.47
elaps:  REORD            18       0.002       0.035     0.00
elaps:  POISON            3       0.463       1.388     0.12
elaps:  DHSCF3            2      12.420      24.839     2.18
elaps:  rhoofd            2       3.944       7.889     0.69
elaps:  cellXC            2       0.446       0.892     0.08
elaps:  vmat              2       6.401      12.801     1.12
elaps:  MolMec            2       0.000       0.000     0.00
elaps:  diagon            1     982.674     982.674    86.21
elaps:  c-eigval        473       0.907     429.069    37.64
elaps:  c-buildHS       473       0.028      13.399     1.18
elaps:  cdiag           825       0.906     747.145    65.55
elaps:  cdiag1          825       0.056      46.569     4.09
elaps:  cdiag2          825       0.248     204.561    17.95
elaps:  cdiag3          825       0.523     431.881    37.89
elaps:  cdiag4          825       0.028      22.987     2.02
elaps:  c-eigvec        352       0.954     335.824    29.46
elaps:  c-buildD        352       0.928     326.801    28.67
elaps:  DHSCF4            1       7.693       7.693     0.67
elaps:  dfscf             1       7.220       7.220     0.63
elaps:  overfsm           1       0.050       0.050     0.00
elaps:  optical           1       0.000       0.000     0.00
  
>> End of run:   8-DEC-2015  14:58:34
