Siesta Version:                                        siesta-3.2-pl-3
Architecture  : x86_64-unknown-linux-gnu--unknown
Compiler flags: mpiifort -g -O2 -fPIC -xSSE4.1 -fp-model source -shared-intel 
PARALLEL version

* Running on    8 nodes in parallel
>> Start of run:   6-DEC-2015  12:23:00

                           ***********************       
                           *  WELCOME TO SIESTA  *       
                           ***********************       

reinit: Reading from standard input
************************** Dump of input data file ****************************
#(1) General system descriptors
SystemName            GRP_doping    # Descriptive name of the system
SystemLabel           GRP_doping    # Short name for naming files
%include STRUCT.fdf
%include KPT.fdf
%include BASIS.fdf
#%include TS.fdf # for transiesta calculation
#(4) DFT, Grid, SCF
XC.functional         GGA           # LDA or GGA (default = LDA)
XC.authors            PBE           # CA (Ceperley-Aldr) = PZ
                                    #    (Perdew-Zunger) - LDA - Default
                                    # PW92 (Perdew-Wang-92) - LDA
                                    # PBE (Perdew-Burke-Ernzerhof) - GGA
MeshCutoff            200.000000    Ry      # Default: 50.0 Ry ~ 0.444 Bohr
                                    #         100.0 Ry ~ 0.314 Bohr
MaxSCFIterations      500           # Default: 50
DM.MixingWeight       0.05          # Default: 0.25
DM.NumberPulay        10            # Default: 0
DM.PulayOnFile        F             # SystemLabel.P1, SystemLabel.P2
DM.Tolerance          1.d-4         # Default: 1.d-4
DM.UseSaveDM          .true.        # because of the bug
SCFMustConverge       .true.
NeglNonOverlapInt     F             # Default: F
#(5) Eigenvalue problem: order-N or diagonalization
SolutionMethod        Diagon        # or Transiesta
ElectronicTemperature 300.0 K       # Default: 300.0 K
#(6) Molecular dynamics and relaxations
#MD.TypeOfRun          CG            # Type of dynamics:
#MD.VariableCell       F
#MD.NumCGsteps         0           # 0 for single-point / 100 for gopt
#MD.MaxCGDispl         0.2 Bohr      # Default: 0.2 Bohr
#MD.MaxForceTol        0.02 eV/Ang   # Default: 0.04 eV/Ang
#MD.MaxStressTol       1.0 GPa       # Default: 1.0 GPa
# Geometry Constraints
#%block GeometryConstraints
#	position from 1 to 44
#%endblock GeometryConstraints
************************** End of input data file *****************************

reinit: -----------------------------------------------------------------------
reinit: System Name: GRP_doping
reinit: -----------------------------------------------------------------------
reinit: System Label: GRP_doping                                                  
reinit: -----------------------------------------------------------------------

initatom: Reading input for the pseudopotentials and atomic orbitals ----------
 Species number:            1  Label: N Atomic number:           7
 Species number:            2  Label: C Atomic number:           6
Ground state valence configuration:   2s02  2p03
Reading pseudopotential information in formatted form from N.psf

Valence configuration for pseudopotential generation:
2s( 2.00) rc: 1.48
2p( 3.00) rc: 1.48
3d( 0.00) rc: 1.48
4f( 0.00) rc: 1.48
Ground state valence configuration:   2s02  2p02
Reading pseudopotential information in formatted form from C.psf

Valence configuration for pseudopotential generation:
2s( 2.00) rc: 1.54
2p( 2.00) rc: 1.54
3d( 0.00) rc: 1.54
4f( 0.00) rc: 1.54
For N, standard SIESTA heuristics set lmxkb to 3
 (one more than the basis l, including polarization orbitals).
Use PS.lmax or PS.KBprojectors blocks to override.
For C, standard SIESTA heuristics set lmxkb to 3
 (one more than the basis l, including polarization orbitals).
Use PS.lmax or PS.KBprojectors blocks to override.

<basis_specs>
===============================================================================
N                    Z=   7    Mass=  14.010        Charge= 0.17977+309
Lmxo=1 Lmxkb= 3    BasisType=split      Semic=F
L=0  Nsemic=0  Cnfigmx=2
          n=1  nzeta=2  polorb=0
            splnorm:   0.15000    
               vcte:    0.0000    
               rinn:    0.0000    
                rcs:    0.0000      0.0000    
            lambdas:    1.0000      1.0000    
L=1  Nsemic=0  Cnfigmx=2
          n=1  nzeta=2  polorb=1
            splnorm:   0.15000    
               vcte:    0.0000    
               rinn:    0.0000    
                rcs:    0.0000      0.0000    
            lambdas:    1.0000      1.0000    
-------------------------------------------------------------------------------
L=0  Nkbl=1  erefs: 0.17977+309
L=1  Nkbl=1  erefs: 0.17977+309
L=2  Nkbl=1  erefs: 0.17977+309
L=3  Nkbl=1  erefs: 0.17977+309
===============================================================================
</basis_specs>

atom: Called for N                     (Z =   7)

read_vps: Pseudopotential generation method:
read_vps: ATM3      Troullier-Martins                       
Total valence charge:    5.00000

read_vps: Pseudopotential includes a core correction:
read_vps: Pseudo-core for xc-correction

xc_check: Exchange-correlation functional:
xc_check: GGA Perdew, Burke & Ernzerhof 1996
V l=0 = -2*Zval/r beyond r=  1.4606
V l=1 = -2*Zval/r beyond r=  1.4606
V l=2 = -2*Zval/r beyond r=  1.4606
V l=3 = -2*Zval/r beyond r=  1.4606
All V_l potentials equal beyond r=  1.4606
This should be close to max(r_c) in ps generation
All pots = -2*Zval/r beyond r=  1.4606

VLOCAL1: 99.0% of the norm of Vloc inside     20.347 Ry
VLOCAL1: 99.9% of the norm of Vloc inside     46.372 Ry
atom: Maximum radius for 4*pi*r*r*local-pseudopot. charge    1.76189
atom: Maximum radius for r*vlocal+2*Zval:    1.53550
GHOST: No ghost state for L =  0
GHOST: No ghost state for L =  1
GHOST: No ghost state for L =  2
GHOST: No ghost state for L =  3

KBgen: Kleinman-Bylander projectors: 
   l= 0   rc=  1.634559   el= -1.363963   Ekb=  5.296955   kbcos=  0.335621
   l= 1   rc=  1.614250   el= -0.521451   Ekb= -5.259161   kbcos= -0.433408
   l= 2   rc=  1.718383   el=  0.001991   Ekb= -1.271464   kbcos= -0.007566
   l= 3   rc=  1.761893   el=  0.003093   Ekb= -0.494769   kbcos= -0.001015

KBgen: Total number of  Kleinman-Bylander projectors:   16
atom: -------------------------------------------------------------------------

atom: SANKEY-TYPE ORBITALS:
atom: Selected multiple-zeta basis: split     

SPLIT: Orbitals with angular momentum L= 0

SPLIT: Basis orbitals for state 2s

SPLIT: PAO cut-off radius determined from an
SPLIT: energy shift=  0.007350 Ry

   izeta = 1
                 lambda =    1.000000
                     rc =    4.071465
                 energy =   -1.356470
                kinetic =    1.176977
    potential(screened) =   -2.533447
       potential(ionic) =   -8.057990

   izeta = 2
                 rmatch =    2.905100
              splitnorm =    0.150000
                 energy =   -1.158343
                kinetic =    1.813009
    potential(screened) =   -2.971352
       potential(ionic) =   -8.901931

SPLIT: Orbitals with angular momentum L= 1

SPLIT: Basis orbitals for state 2p

SPLIT: PAO cut-off radius determined from an
SPLIT: energy shift=  0.007350 Ry

   izeta = 1
                 lambda =    1.000000
                     rc =    4.972977
                 energy =   -0.513884
                kinetic =    3.441732
    potential(screened) =   -3.955616
       potential(ionic) =   -9.287901

   izeta = 2
                 rmatch =    3.054066
              splitnorm =    0.150000
                 energy =   -0.318226
                kinetic =    5.125348
    potential(screened) =   -5.443573
       potential(ionic) =  -11.380999

POLgen: Perturbative polarization orbital with L=  2

POLgen: Polarization orbital for state 2p

   izeta = 1
                     rc =    4.972977
                 energy =    1.607437
                kinetic =    3.268125
    potential(screened) =   -1.660688
       potential(ionic) =   -5.973652
atom: Total number of Sankey-type orbitals: 13

atm_pop: Valence configuration (for local Pseudopot. screening):
 2s( 2.00)                                                            
 2p( 3.00)                                                            
Vna: chval, zval:    5.00000   5.00000

Vna:  Cut-off radius for the neutral-atom potential:   4.972977
comcore: Pseudo-core radius Rcore=  1.554824

atom: _________________________________________________________________________

<basis_specs>
===============================================================================
C                    Z=   6    Mass=  12.010        Charge= 0.17977+309
Lmxo=1 Lmxkb= 3    BasisType=split      Semic=F
L=0  Nsemic=0  Cnfigmx=2
          n=1  nzeta=2  polorb=0
            splnorm:   0.15000    
               vcte:    0.0000    
               rinn:    0.0000    
                rcs:    0.0000      0.0000    
            lambdas:    1.0000      1.0000    
L=1  Nsemic=0  Cnfigmx=2
          n=1  nzeta=2  polorb=1
            splnorm:   0.15000    
               vcte:    0.0000    
               rinn:    0.0000    
                rcs:    0.0000      0.0000    
            lambdas:    1.0000      1.0000    
-------------------------------------------------------------------------------
L=0  Nkbl=1  erefs: 0.17977+309
L=1  Nkbl=1  erefs: 0.17977+309
L=2  Nkbl=1  erefs: 0.17977+309
L=3  Nkbl=1  erefs: 0.17977+309
===============================================================================
</basis_specs>

atom: Called for C                     (Z =   6)

read_vps: Pseudopotential generation method:
read_vps: ATM3      Troullier-Martins                       
Total valence charge:    4.00000

read_vps: Pseudopotential includes a core correction:
read_vps: Pseudo-core for xc-correction

xc_check: Exchange-correlation functional:
xc_check: GGA Perdew, Burke & Ernzerhof 1996
V l=0 = -2*Zval/r beyond r=  1.5227
V l=1 = -2*Zval/r beyond r=  1.5227
V l=2 = -2*Zval/r beyond r=  1.5227
V l=3 = -2*Zval/r beyond r=  1.5038
All V_l potentials equal beyond r=  1.5227
This should be close to max(r_c) in ps generation
All pots = -2*Zval/r beyond r=  1.5227

VLOCAL1: 99.0% of the norm of Vloc inside     18.722 Ry
VLOCAL1: 99.9% of the norm of Vloc inside     42.668 Ry
atom: Maximum radius for 4*pi*r*r*local-pseudopot. charge    1.83678
atom: Maximum radius for r*vlocal+2*Zval:    1.58088
GHOST: No ghost state for L =  0
GHOST: No ghost state for L =  1
GHOST: No ghost state for L =  2
GHOST: No ghost state for L =  3

KBgen: Kleinman-Bylander projectors: 
   l= 0   rc=  1.704034   el= -1.009801   Ekb=  5.335044   kbcos=  0.316824
   l= 1   rc=  1.704034   el= -0.388707   Ekb= -3.785862   kbcos= -0.366464
   l= 2   rc=  1.791422   el=  0.001971   Ekb= -0.970471   kbcos= -0.009212
   l= 3   rc=  1.859892   el=  0.003065   Ekb= -0.399525   kbcos= -0.001223

KBgen: Total number of  Kleinman-Bylander projectors:   16
atom: -------------------------------------------------------------------------

atom: SANKEY-TYPE ORBITALS:
atom: Selected multiple-zeta basis: split     

SPLIT: Orbitals with angular momentum L= 0

SPLIT: Basis orbitals for state 2s

SPLIT: PAO cut-off radius determined from an
SPLIT: energy shift=  0.007350 Ry

   izeta = 1
                 lambda =    1.000000
                     rc =    4.632753
                 energy =   -1.002270
                kinetic =    0.855760
    potential(screened) =   -1.858031
       potential(ionic) =   -5.417575

   izeta = 2
                 rmatch =    3.431921
              splitnorm =    0.150000
                 energy =   -0.867111
                kinetic =    1.300804
    potential(screened) =   -2.167915
       potential(ionic) =   -5.962684

SPLIT: Orbitals with angular momentum L= 1

SPLIT: Basis orbitals for state 2p

SPLIT: PAO cut-off radius determined from an
SPLIT: energy shift=  0.007350 Ry

   izeta = 1
                 lambda =    1.000000
                     rc =    5.658549
                 energy =   -0.381140
                kinetic =    2.399701
    potential(screened) =   -2.780841
       potential(ionic) =   -6.206085

   izeta = 2
                 rmatch =    3.653288
              splitnorm =    0.150000
                 energy =   -0.249149
                kinetic =    3.542762
    potential(screened) =   -3.791911
       potential(ionic) =   -7.581078

POLgen: Perturbative polarization orbital with L=  2

POLgen: Polarization orbital for state 2p

   izeta = 1
                     rc =    5.658549
                 energy =    1.109913
                kinetic =    2.304789
    potential(screened) =   -1.194876
       potential(ionic) =   -4.013592
atom: Total number of Sankey-type orbitals: 13

atm_pop: Valence configuration (for local Pseudopot. screening):
 2s( 2.00)                                                            
 2p( 2.00)                                                            
Vna: chval, zval:    4.00000   4.00000

Vna:  Cut-off radius for the neutral-atom potential:   5.658549
comcore: Pseudo-core radius Rcore=  1.791422

atom: _________________________________________________________________________

prinput: Basis input ----------------------------------------------------------

PAO.BasisType split     

%block ChemicalSpeciesLabel
    1    7 N                       # Species index, atomic number, species label
    2    6 C                       # Species index, atomic number, species label
%endblock ChemicalSpeciesLabel

%block PAO.Basis                 # Define Basis set
N                     2                    # Species label, number of l-shells
 n=2   0   2                         # n, l, Nzeta 
   4.071      2.905   
   1.000      1.000   
 n=2   1   2 P   1                   # n, l, Nzeta, Polarization, NzetaPol
   4.973      3.054   
   1.000      1.000   
C                     2                    # Species label, number of l-shells
 n=2   0   2                         # n, l, Nzeta 
   4.633      3.432   
   1.000      1.000   
 n=2   1   2 P   1                   # n, l, Nzeta, Polarization, NzetaPol
   5.659      3.653   
   1.000      1.000   
%endblock PAO.Basis

prinput: ----------------------------------------------------------------------

coor:   Atomic-coordinates input format  =     Cartesian coordinates
coor:                                          (in Angstroms)

siesta: Atomic coordinates (Bohr) and species
siesta:      2.23554   1.32097   0.00000  1        1
siesta:     34.83104  14.76308   0.00000  1        2
siesta:     30.17453   6.69743   0.00000  1        3
siesta:     30.17527  22.82873   0.00000  1        4
siesta:     11.54782   1.32097   0.00000  1        5
siesta:     20.86199   1.32097   0.00000  1        6
siesta:     11.54807   6.69743   0.00000  1        7
siesta:     20.86224   6.69743   0.00000  1        8
siesta:      6.89205   9.38661   0.00000  1        9
siesta:     16.20434   9.38661   0.00000  1       10
siesta:     16.20459  14.76308   0.00000  1       11
siesta:     11.54857  17.45226   0.00000  1       12
siesta:     20.86299  22.82873   0.00000  1       13
siesta:     25.51851   9.38661   0.00000  1       14
siesta:     25.51876  14.76308   0.00000  1       15
siesta:     20.86274  17.45226   0.00000  1       16
siesta:     30.17503  17.45226   0.00000  1       17
siesta:     39.48945  22.82873   0.00000  1       18
siesta:      4.56367   2.66461   0.00000  2       19
siesta:     32.50328  21.48508   0.00000  2       20
siesta:     34.83141  22.82873   0.00000  2       21
siesta:     34.83116  17.45226   0.00000  2       22
siesta:     37.15930  18.79590   0.00000  2       23
siesta:     32.50291  13.41944   0.00000  2       24
siesta:     30.17465   9.38661   0.00000  2       25
siesta:     32.50278  10.73026   0.00000  2       26
siesta:     27.84639   5.35379   0.00000  2       27
siesta:     27.84714  21.48508   0.00000  2       28
siesta:      6.89168   1.32097   0.00000  2       29
siesta:      9.21981   2.66461   0.00000  2       30
siesta:     13.87595   2.66461   0.00000  2       31
siesta:     16.20396   1.32097   0.00000  2       32
siesta:     18.53210   2.66461   0.00000  2       33
siesta:     23.19013   2.66461   0.00000  2       34
siesta:     25.51813   1.32097   0.00000  2       35
siesta:     27.84627   2.66461   0.00000  2       36
siesta:      4.56380   5.35379   0.00000  2       37
siesta:      6.89193   6.69743   0.00000  2       38
siesta:      9.21994   5.35379   0.00000  2       39
siesta:     13.87608   5.35379   0.00000  2       40
siesta:     16.20421   6.69743   0.00000  2       41
siesta:     18.53411   5.35379   0.00000  2       42
siesta:     23.19025   5.35379   0.00000  2       43
siesta:     25.51838   6.69743   0.00000  2       44
siesta:      9.22019  10.73026   0.00000  2       45
siesta:     11.54820   9.38661   0.00000  2       46
siesta:     13.87633  10.73026   0.00000  2       47
siesta:     18.53247  10.73026   0.00000  2       48
siesta:     20.86237   9.38661   0.00000  2       49
siesta:     23.19050  10.73026   0.00000  2       50
siesta:      9.22031  13.41944   0.00000  2       51
siesta:     11.54845  14.76308   0.00000  2       52
siesta:     13.87645  13.41944   0.00000  2       53
siesta:     18.53448  13.41944   0.00000  2       54
siesta:     20.86262  14.76308   0.00000  2       55
siesta:     13.87670  18.79590   0.00000  2       56
siesta:     16.20471  17.45226   0.00000  2       57
siesta:     18.53284  18.79590   0.00000  2       58
siesta:     13.87683  21.48508   0.00000  2       59
siesta:     16.20496  22.82873   0.00000  2       60
siesta:     18.53486  21.48508   0.00000  2       61
siesta:     27.84664  10.73026   0.00000  2       62
siesta:     23.19063  13.41944   0.00000  2       63
siesta:     23.19088  18.79590   0.00000  2       64
siesta:     27.84677  13.41944   0.00000  2       65
siesta:     30.17490  14.76308   0.00000  2       66
siesta:     25.51888  17.45226   0.00000  2       67
siesta:     27.84702  18.79590   0.00000  2       68
siesta:     23.19100  21.48508   0.00000  2       69
siesta:     25.51913  22.82873   0.00000  2       70
siesta:     32.50316  18.79590   0.00000  2       71
siesta:     37.16131  21.48508   0.00000  2       72

siesta: System type = slab      

initatomlists: Number of atoms, orbitals, and projectors:     72   936  1152

siesta: ******************** Simulation parameters ****************************
siesta:
siesta: The following are some of the parameters of the simulation.
siesta: A complete list of the parameters used, including default values,
siesta: can be found in file out.fdf
siesta:
redata: Non-Collinear-spin run           =     F
redata: SpinPolarized (Up/Down) run      =     F
redata: Number of spin components        =     1
redata: Long output                      =     F
redata: Number of Atomic Species         =        2
redata: Charge density info will appear in .RHO file
redata: Write Mulliken Pop.              =     NO
redata: Mesh Cutoff                      =   200.0000  Ry
redata: Net charge of the system         =     0.0000 |e|
redata: Max. number of SCF Iter          =      500
redata: SCF convergence failure will abort job
redata: Performing Pulay mixing using    =    10 iterations
redata: Mix DM in first SCF step ?       =     F
redata: Write Pulay info on disk?        =     F
redata: Discard 1st Pulay DM after  kick =     F
redata: New DM Mixing Weight             =     0.0500
redata: New DM Occupancy tolerance       = 0.000000000001
redata: No kicks to SCF
redata: DM Mixing Weight for Kicks       =     0.5000
redata: DM Tolerance for SCF             =     0.000100
redata: Require Energy convergence for SCF =     F
redata: DM Energy tolerance for SCF      =     0.000100 eV
redata: Require Harris convergence for SCF =     F
redata: DM Harris energy tolerance for SCF =     0.000100 eV
redata: Using Saved Data (generic)   =     F
redata: Use continuation files for DM    =     T
redata: Neglect nonoverlap interactions  =     F
redata: Method of Calculation            =     Diagonalization
redata: Divide and Conquer               =     T
redata: Electronic Temperature           =     0.0019  Ry
redata: Fix the spin of the system       =     F
redata: Dynamics option                  =     Verlet MD run
redata: Initial MD time step             =        1
redata:   Final MD time step             =        1
redata: Length of MD time step           =     1.0000  fs
redata: Initial Temperature of MD run    =     0.0000  K
redata: Perform a MD quench              =     F
redata: ***********************************************************************
Total number of electrons:   306.000000
Total ionic charge:   306.000000

* ProcessorY, Blocksize:    2  24

k-point displ. along   1 input, could be:     0.00    0.50
k-point displ. along   2 input, could be:     0.00    0.50
 Kpoints in:          364 . Kpoints trimmed:          352

siesta: k-grid: Number of k-points =   352
siesta: k-grid: Cutoff (effective) =     5.000 Ang
siesta: k-grid: Supercell and displacements
siesta: k-grid:   26   0   0      0.000
siesta: k-grid:    0  26   0      0.000
siesta: k-grid:    0   0   1      0.000
Naive supercell factors:     2    2    2

superc: Internal auxiliary supercell:     2 x     2 x     2  =       8
superc: Number of atoms, orbitals, and projectors:    576   7488   9216

* Maximum dynamic memory allocated =     6 MB

siesta:                 ==============================
                            Begin MD step =      1
                        ==============================

superc: Internal auxiliary supercell:     2 x     2 x     2  =       8
superc: Number of atoms, orbitals, and projectors:    576   7488   9216

outcell: Unit cell vectors (Ang):
       14.785000    0.000000    0.000000
        7.393000   12.805052    0.000000
        0.000000    0.000000   10.000000

outcell: Cell vector modules (Ang)   :   14.785000   14.786000   10.000000
outcell: Cell angles (23,13,12) (deg):     90.0000     90.0000     60.0000
outcell: Cell volume (Ang**3)        :   1893.2269
New_DM. Step:     1
Initializing Density Matrix...

iodm: Reading Density Matrix from files
 Read DM has different structure. Fixing...

InitMesh: MESH =   120 x   120 x    90 =     1296000
InitMesh: Mesh cutoff (required, used) =   200.000   223.865 Ry

* Maximum dynamic memory allocated =   181 MB

stepf: Fermi-Dirac step function

siesta: Program's energy decomposition (eV):
siesta: Ebs     =     -4131.183295
siesta: Eions   =     21296.454266
siesta: Ena     =      4152.215292
siesta: Ekin    =      9119.882844
siesta: Enl     =     -1176.288249
siesta: DEna    =      -339.964390
siesta: DUscf   =       207.686435
siesta: DUext   =         0.000000
siesta: Exc     =     -4524.589902
siesta: eta*DQ  =         0.000000
siesta: Emadel  =         0.000000
siesta: Emeta   =         0.000000
siesta: Emolmec =         0.000000
siesta: Ekinion =         0.000000
siesta: Eharris =    -14140.352168
siesta: Etot    =    -13857.512237
siesta: FreeEng =    -13857.512237

siesta: iscf   Eharris(eV)      E_KS(eV)   FreeEng(eV)   dDmax  Ef(eV)
siesta:    1   -14140.3522   -13857.5122   -13857.5122  0.6433 -0.8838
timer: Routine,Calls,Time,% = IterSCF        1    7659.320  99.85
elaps: Routine,Calls,Wall,% = IterSCF        1     958.803  99.85
siesta:    2   -15078.2059   -13197.9521   -13197.9521  0.7189 -4.9106
siesta:    3   -13832.1642   -13769.2007   -13769.2007  0.4091 -2.5640
siesta:    4   -13823.0770   -13774.9701   -13775.0000  0.4018 -2.5831
siesta:    5   -13821.0217   -13755.9034   -13755.9341  0.3141 -2.8880
siesta:    6   -13801.7308   -13752.9947   -13753.0257  0.1405 -3.6808
siesta:    7   -13800.8533   -13753.8724   -13753.8724  0.1369 -3.6635
siesta:    8   -13795.1471   -13785.2876   -13785.2876  0.0373 -3.1710
siesta:    9   -13795.1507   -13786.7421   -13786.7421  0.0360 -3.1688
siesta:   10   -13795.1278   -13791.6943   -13791.6943  0.0173 -3.1685
siesta:   11   -13795.1300   -13792.6165   -13792.6165  0.0123 -3.1725
siesta:   12   -13795.1270   -13793.4961   -13793.4961  0.0068 -3.1711
siesta:   13   -13795.1250   -13794.7486   -13794.7487  0.0019 -3.1688
siesta:   14   -13795.1249   -13794.7280   -13794.7280  0.0017 -3.1689
siesta:   15   -13795.1248   -13794.9201   -13794.9201  0.0009 -3.1686
siesta:   16   -13795.1248   -13795.0959   -13795.0959  0.0003 -3.1682
siesta:   17   -13795.1248   -13795.1306   -13795.1306  0.0001 -3.1682

siesta: E_KS(eV) =           -13795.1295

siesta: E_KS - E_eggbox =    -13795.1295

siesta: Atomic forces (eV/Ang):
----------------------------------------
   Tot    0.487538   -0.059936    0.000000
----------------------------------------
   Max    0.322248
   Res    0.148777    sqrt( Sum f_i^2 / 3N )
----------------------------------------
   Max    0.322248    constrained

Stress-tensor-Voigt (kbar):       33.83       34.14        0.25       -0.19        0.00        0.00
(Free)E + p*V (eV/cell)   -13821.9989
Target enthalpy (eV/cell)   -13795.1295

siesta: Stress tensor (static) (eV/Ang**3):
         0.021112   -0.000120    0.000000
        -0.000120    0.021307    0.000000
         0.000000    0.000000    0.000158

siesta: Pressure (static):        -22.73892515  kBar

siesta: Stress tensor (total) (eV/Ang**3):
         0.021112   -0.000120    0.000000
        -0.000120    0.021307    0.000000
         0.000000    0.000000    0.000158

siesta: Pressure (total):        -22.73892515  kBar

siesta: Temp_ion =       0.000 K

* Maximum dynamic memory allocated =   195 MB

siesta: Program's energy decomposition (eV):
siesta: Ebs     =     -4419.187291
siesta: Eions   =     21296.454266
siesta: Ena     =      4152.215292
siesta: Ekin    =      9337.245961
siesta: Enl     =     -1331.111782
siesta: DEna    =      -212.381885
siesta: DUscf   =        20.528148
siesta: DUext   =         0.000000
siesta: Exc     =     -4465.170962
siesta: eta*DQ  =         0.000000
siesta: Emadel  =         0.000000
siesta: Emeta   =         0.000000
siesta: Emolmec =         0.000000
siesta: Ekinion =         0.000000
siesta: Eharris =    -13795.124791
siesta: Etot    =    -13795.129494
siesta: FreeEng =    -13795.129513

siesta: Final energy (eV):
siesta:  Band Struct. =   -4419.187291
siesta:       Kinetic =    9337.245961
siesta:       Hartree =   26529.446621
siesta:    Ext. field =       0.000000
siesta:   Exch.-corr. =   -4465.170962
siesta:  Ion-electron =  -61776.594766
siesta:       Ion-ion =   16579.943652
siesta:       Ekinion =       0.000000
siesta:         Total =  -13795.129494

siesta: Atomic forces (eV/Ang):
siesta:      1   -0.006316   -0.043257    0.000000
siesta:      2    0.034984    0.040394    0.000000
siesta:      3    0.034527    0.041060    0.000000
siesta:      4    0.020059    0.061449    0.000000
siesta:      5    0.015935   -0.046210    0.000000
siesta:      6   -0.019283   -0.044468    0.000000
siesta:      7    0.023401    0.044149    0.000000
siesta:      8    0.018917    0.041018    0.000000
siesta:      9    0.001286   -0.026835    0.000000
siesta:     10    0.017527   -0.028137    0.000000
siesta:     11    0.048503    0.042190    0.000000
siesta:     12    0.001700   -0.030838    0.000000
siesta:     13    0.014758    0.057699    0.000000
siesta:     14    0.012398   -0.031197    0.000000
siesta:     15    0.023210    0.044544    0.000000
siesta:     16   -0.012759   -0.026641    0.000000
siesta:     17    0.012977   -0.028098    0.000000
siesta:     18    0.001389    0.063204    0.000000
siesta:     19   -0.258451   -0.144966    0.000000
siesta:     20   -0.245839    0.138451    0.000000
siesta:     21    0.032436    0.308330    0.000000
siesta:     22    0.007140   -0.303332    0.000000
siesta:     23    0.281299   -0.135767    0.000000
siesta:     24    0.260917    0.129917    0.000000
siesta:     25    0.009915   -0.308258    0.000000
siesta:     26    0.270506   -0.141601    0.000000
siesta:     27    0.260675    0.129765    0.000000
siesta:     28    0.259566    0.134982    0.000000
siesta:     29    0.011235   -0.321642    0.000000
siesta:     30    0.259715   -0.141616    0.000000
siesta:     31   -0.254937   -0.144843    0.000000
siesta:     32    0.013748   -0.322248    0.000000
siesta:     33    0.294072   -0.140464    0.000000
siesta:     34   -0.260090   -0.144769    0.000000
siesta:     35    0.014029   -0.322227    0.000000
siesta:     36    0.270670   -0.141798    0.000000
siesta:     37   -0.259401    0.135402    0.000000
siesta:     38   -0.005458    0.300687    0.000000
siesta:     39    0.258901    0.130710    0.000000
siesta:     40   -0.244131    0.133086    0.000000
siesta:     41    0.025474    0.289459    0.000000
siesta:     42    0.221936    0.140074    0.000000
siesta:     43   -0.248234    0.131286    0.000000
siesta:     44   -0.004022    0.299348    0.000000
siesta:     45   -0.256679   -0.139063    0.000000
siesta:     46    0.007101   -0.306006    0.000000
siesta:     47    0.258559   -0.136293    0.000000
siesta:     48   -0.216429   -0.148501    0.000000
siesta:     49   -0.022162   -0.295985    0.000000
siesta:     50    0.254482   -0.138645    0.000000
siesta:     51   -0.260491    0.134708    0.000000
siesta:     52   -0.006052    0.302884    0.000000
siesta:     53    0.262597    0.127646    0.000000
siesta:     54   -0.283600    0.134738    0.000000
siesta:     55   -0.005407    0.302403    0.000000
siesta:     56   -0.254343   -0.138554    0.000000
siesta:     57    0.010404   -0.306174    0.000000
siesta:     58    0.293211   -0.139823    0.000000
siesta:     59   -0.232087    0.133497    0.000000
siesta:     60    0.034694    0.305418    0.000000
siesta:     61    0.221253    0.140422    0.000000
siesta:     62   -0.255116   -0.138715    0.000000
siesta:     63    0.258155    0.130841    0.000000
siesta:     64   -0.259230   -0.138694    0.000000
siesta:     65   -0.249603    0.131265    0.000000
siesta:     66   -0.003326    0.299591    0.000000
siesta:     67    0.007791   -0.304421    0.000000
siesta:     68    0.259090   -0.138445    0.000000
siesta:     69   -0.249383    0.133421    0.000000
siesta:     70   -0.006604    0.315155    0.000000
siesta:     71   -0.253416   -0.141031    0.000000
siesta:     72    0.219247    0.140432    0.000000
siesta: ----------------------------------------
siesta:    Tot    0.487538   -0.059936    0.000000

siesta: Stress tensor (static) (eV/Ang**3):
siesta:     0.021112   -0.000120    0.000000
siesta:    -0.000120    0.021307    0.000000
siesta:     0.000000    0.000000    0.000158

siesta: Cell volume =       1893.226895 Ang**3

siesta: Pressure (static):
siesta:                Solid            Molecule  Units
siesta:          -0.00015457         -0.00020320  Ry/Bohr**3
siesta:          -0.01419237         -0.01865749  eV/Ang**3
siesta:         -22.73892515        -29.89291396  kBar
(Free)E+ p_basis*V_orbitals  =      -13766.965240
(Free)Eharris+ p_basis*V_orbitals  =      -13766.959440

siesta: Electric dipole (a.u.)  =    0.000000    0.000000    0.000000
siesta: Electric dipole (Debye) =    0.000000    0.000000    0.000000

* Maximum dynamic memory allocated : Node    0 =   195 MB
* Maximum dynamic memory allocated : Node    1 =    72 MB
* Maximum dynamic memory allocated : Node    2 =    74 MB
* Maximum dynamic memory allocated : Node    3 =   186 MB
* Maximum dynamic memory allocated : Node    4 =   195 MB
* Maximum dynamic memory allocated : Node    5 =    72 MB
* Maximum dynamic memory allocated : Node    6 =    74 MB
* Maximum dynamic memory allocated : Node    7 =   180 MB

* Maximum memory occured during matrixMtoO                    

timer: CPU execution times:
timer:  Routine       Calls   Time/call    Tot.time        %
timer:  siesta            1  129543.686  129543.686   100.00
timer:  Setup             1       3.105       3.105     0.00
timer:  bands             1       0.009       0.009     0.00
timer:  writewave         1       0.016       0.016     0.00
timer:  KSV_init          1       0.003       0.003     0.00
timer:  IterMD            1  129532.353  129532.353    99.99
timer:  hsparse           1       0.264       0.264     0.00
timer:  overlap           1       7.674       7.674     0.01
timer:  IterSCF          17    7610.392  129376.667    99.87
timer:  kinefsm           2       3.936       7.872     0.01
timer:  nlefsm            2      18.290      36.579     0.03
timer:  DHSCF            18      84.608    1522.948     1.18
timer:  DHSCF1            1       0.808       0.808     0.00
timer:  DHSCF2            1      33.730      33.730     0.03
timer:  REORD           146       0.014       1.995     0.00
timer:  POISON           19       3.690      70.115     0.05
timer:  DHSCF3           18      80.997    1457.950     1.13
timer:  rhoofd           18      15.100     271.804     0.21
timer:  cellXC           18       3.553      63.957     0.05
timer:  vmat             18      40.135     722.436     0.56
timer:  MolMec            2       0.000       0.000     0.00
timer:  diagon           17    7524.134  127910.286    98.74
timer:  c-eigval       5984       7.204   43109.411    33.28
timer:  c-buildHS      5984       0.203    1213.565     0.94
timer:  cdiag         11968       7.373   88244.249    68.12
timer:  cdiag1        11968       0.461    5518.109     4.26
timer:  cdiag2        11968       1.977   23664.464    18.27
timer:  cdiag3        11968       4.159   49775.675    38.42
timer:  cdiag4        11968       0.247    2958.342     2.28
timer:  c-eigvec       5984       7.837   46898.788    36.20
timer:  c-buildD       5984       6.326   37852.992    29.22
timer:  DHSCF4            1      28.866      28.866     0.02
timer:  dfscf             1      27.070      27.070     0.02
timer:  overfsm           1       0.378       0.378     0.00
timer:  optical           1       7.200       7.200     0.01
  

elaps: ELAPSED times:
elaps:  Routine       Calls   Time/call    Tot.time        %
elaps:  siesta            1   16215.958   16215.958   100.00
elaps:  Setup             1       0.387       0.387     0.00
elaps:  bands             1       0.001       0.001     0.00
elaps:  writewave         1       0.002       0.002     0.00
elaps:  KSV_init          1       0.000       0.000     0.00
elaps:  IterMD            1   16214.541   16214.541    99.99
elaps:  hsparse           1       0.031       0.031     0.00
elaps:  overlap           1       0.965       0.965     0.01
elaps:  IterSCF          17     952.651   16195.063    99.87
elaps:  kinefsm           2       0.498       0.996     0.01
elaps:  nlefsm            2       2.289       4.578     0.03
elaps:  DHSCF            18      10.754     193.565     1.19
elaps:  DHSCF1            1       0.101       0.101     0.00
elaps:  DHSCF2            1       4.225       4.225     0.03
elaps:  REORD           146       0.002       0.252     0.00
elaps:  POISON           19       0.464       8.815     0.05
elaps:  DHSCF3           18      10.134     182.418     1.12
elaps:  rhoofd           18       3.284      59.110     0.36
elaps:  cellXC           18       0.444       7.986     0.05
elaps:  vmat             18       5.022      90.394     0.56
elaps:  MolMec            2       0.000       0.000     0.00
elaps:  diagon           17     941.880   16011.960    98.74
elaps:  c-eigval       5984       0.901    5394.379    33.27
elaps:  c-buildHS      5984       0.027     159.733     0.99
elaps:  cdiag         11968       0.909   10872.992    67.05
elaps:  cdiag1        11968       0.058     691.641     4.27
elaps:  cdiag2        11968       0.247    2961.098    18.26
elaps:  cdiag3        11968       0.521    6237.747    38.47
elaps:  cdiag4        11968       0.031     376.777     2.32
elaps:  c-eigvec       5984       0.961    5751.368    35.47
elaps:  c-buildD       5984       0.812    4858.744    29.96
elaps:  DHSCF4            1       6.598       6.598     0.04
elaps:  dfscf             1       6.225       6.225     0.04
elaps:  overfsm           1       0.048       0.048     0.00
elaps:  optical           1       0.001       0.001     0.00
  
>> End of run:   6-DEC-2015  16:53:16
