Siesta Version:                                        siesta-3.2-pl-3
Architecture  : x86_64-unknown-linux-gnu--unknown
Compiler flags: mpiifort -g -O2 -fPIC -xSSE4.1 -fp-model source -shared-intel 
PARALLEL version

* Running on    8 nodes in parallel
>> Start of run:  30-NOV-2015  21:02:46

                           ***********************       
                           *  WELCOME TO SIESTA  *       
                           ***********************       

reinit: Reading from standard input
************************** Dump of input data file ****************************
#(1) General system descriptors
SystemName            GRP_doping    # Descriptive name of the system
SystemLabel           GRP_doping    # Short name for naming files
%include STRUCT.fdf
%include KPT.fdf
%include BASIS.fdf
#%include TS.fdf # for transiesta calculation
#(4) DFT, Grid, SCF
XC.functional         GGA           # LDA or GGA (default = LDA)
XC.authors            PBE           # CA (Ceperley-Aldr) = PZ
                                    #    (Perdew-Zunger) - LDA - Default
                                    # PW92 (Perdew-Wang-92) - LDA
                                    # PBE (Perdew-Burke-Ernzerhof) - GGA
MeshCutoff            200.000000    Ry      # Default: 50.0 Ry ~ 0.444 Bohr
                                    #         100.0 Ry ~ 0.314 Bohr
MaxSCFIterations      500           # Default: 50
DM.MixingWeight       0.05          # Default: 0.25
DM.NumberPulay        10            # Default: 0
DM.PulayOnFile        F             # SystemLabel.P1, SystemLabel.P2
DM.Tolerance          1.d-4         # Default: 1.d-4
DM.UseSaveDM          .true.        # because of the bug
SCFMustConverge       .true.
NeglNonOverlapInt     F             # Default: F
#(5) Eigenvalue problem: order-N or diagonalization
SolutionMethod        Diagon        # or Transiesta
ElectronicTemperature 300.0 K       # Default: 300.0 K
#(6) Molecular dynamics and relaxations
#MD.TypeOfRun          CG            # Type of dynamics:
#MD.VariableCell       F
#MD.NumCGsteps         0           # 0 for single-point / 100 for gopt
#MD.MaxCGDispl         0.2 Bohr      # Default: 0.2 Bohr
#MD.MaxForceTol        0.02 eV/Ang   # Default: 0.04 eV/Ang
#MD.MaxStressTol       1.0 GPa       # Default: 1.0 GPa
# Geometry Constraints
#%block GeometryConstraints
#	position from 1 to 44
#%endblock GeometryConstraints
************************** End of input data file *****************************

reinit: -----------------------------------------------------------------------
reinit: System Name: GRP_doping
reinit: -----------------------------------------------------------------------
reinit: System Label: GRP_doping                                                  
reinit: -----------------------------------------------------------------------

initatom: Reading input for the pseudopotentials and atomic orbitals ----------
 Species number:            1  Label: C Atomic number:           6
 Species number:            2  Label: B Atomic number:           5
Ground state valence configuration:   2s02  2p02
Reading pseudopotential information in formatted form from C.psf

Valence configuration for pseudopotential generation:
2s( 2.00) rc: 1.54
2p( 2.00) rc: 1.54
3d( 0.00) rc: 1.54
4f( 0.00) rc: 1.54
Ground state valence configuration:   2s02  2p01
Reading pseudopotential information in formatted form from B.psf

Valence configuration for pseudopotential generation:
2s( 2.00) rc: 1.74
2p( 1.00) rc: 1.74
3d( 0.00) rc: 1.74
4f( 0.00) rc: 1.74
For C, standard SIESTA heuristics set lmxkb to 3
 (one more than the basis l, including polarization orbitals).
Use PS.lmax or PS.KBprojectors blocks to override.
For B, standard SIESTA heuristics set lmxkb to 3
 (one more than the basis l, including polarization orbitals).
Use PS.lmax or PS.KBprojectors blocks to override.

<basis_specs>
===============================================================================
C                    Z=   6    Mass=  12.010        Charge= 0.17977+309
Lmxo=1 Lmxkb= 3    BasisType=split      Semic=F
L=0  Nsemic=0  Cnfigmx=2
          n=1  nzeta=2  polorb=0
            splnorm:   0.15000    
               vcte:    0.0000    
               rinn:    0.0000    
                rcs:    0.0000      0.0000    
            lambdas:    1.0000      1.0000    
L=1  Nsemic=0  Cnfigmx=2
          n=1  nzeta=2  polorb=1
            splnorm:   0.15000    
               vcte:    0.0000    
               rinn:    0.0000    
                rcs:    0.0000      0.0000    
            lambdas:    1.0000      1.0000    
-------------------------------------------------------------------------------
L=0  Nkbl=1  erefs: 0.17977+309
L=1  Nkbl=1  erefs: 0.17977+309
L=2  Nkbl=1  erefs: 0.17977+309
L=3  Nkbl=1  erefs: 0.17977+309
===============================================================================
</basis_specs>

atom: Called for C                     (Z =   6)

read_vps: Pseudopotential generation method:
read_vps: ATM3      Troullier-Martins                       
Total valence charge:    4.00000

read_vps: Pseudopotential includes a core correction:
read_vps: Pseudo-core for xc-correction

xc_check: Exchange-correlation functional:
xc_check: GGA Perdew, Burke & Ernzerhof 1996
V l=0 = -2*Zval/r beyond r=  1.5227
V l=1 = -2*Zval/r beyond r=  1.5227
V l=2 = -2*Zval/r beyond r=  1.5227
V l=3 = -2*Zval/r beyond r=  1.5038
All V_l potentials equal beyond r=  1.5227
This should be close to max(r_c) in ps generation
All pots = -2*Zval/r beyond r=  1.5227

VLOCAL1: 99.0% of the norm of Vloc inside     18.722 Ry
VLOCAL1: 99.9% of the norm of Vloc inside     42.668 Ry
atom: Maximum radius for 4*pi*r*r*local-pseudopot. charge    1.83678
atom: Maximum radius for r*vlocal+2*Zval:    1.58088
GHOST: No ghost state for L =  0
GHOST: No ghost state for L =  1
GHOST: No ghost state for L =  2
GHOST: No ghost state for L =  3

KBgen: Kleinman-Bylander projectors: 
   l= 0   rc=  1.704034   el= -1.009801   Ekb=  5.335044   kbcos=  0.316824
   l= 1   rc=  1.704034   el= -0.388707   Ekb= -3.785862   kbcos= -0.366464
   l= 2   rc=  1.791422   el=  0.001971   Ekb= -0.970471   kbcos= -0.009212
   l= 3   rc=  1.859892   el=  0.003065   Ekb= -0.399525   kbcos= -0.001223

KBgen: Total number of  Kleinman-Bylander projectors:   16
atom: -------------------------------------------------------------------------

atom: SANKEY-TYPE ORBITALS:
atom: Selected multiple-zeta basis: split     

SPLIT: Orbitals with angular momentum L= 0

SPLIT: Basis orbitals for state 2s

SPLIT: PAO cut-off radius determined from an
SPLIT: energy shift=  0.007350 Ry

   izeta = 1
                 lambda =    1.000000
                     rc =    4.632753
                 energy =   -1.002270
                kinetic =    0.855760
    potential(screened) =   -1.858031
       potential(ionic) =   -5.417575

   izeta = 2
                 rmatch =    3.431921
              splitnorm =    0.150000
                 energy =   -0.867111
                kinetic =    1.300804
    potential(screened) =   -2.167915
       potential(ionic) =   -5.962684

SPLIT: Orbitals with angular momentum L= 1

SPLIT: Basis orbitals for state 2p

SPLIT: PAO cut-off radius determined from an
SPLIT: energy shift=  0.007350 Ry

   izeta = 1
                 lambda =    1.000000
                     rc =    5.658549
                 energy =   -0.381140
                kinetic =    2.399701
    potential(screened) =   -2.780841
       potential(ionic) =   -6.206085

   izeta = 2
                 rmatch =    3.653288
              splitnorm =    0.150000
                 energy =   -0.249149
                kinetic =    3.542762
    potential(screened) =   -3.791911
       potential(ionic) =   -7.581078

POLgen: Perturbative polarization orbital with L=  2

POLgen: Polarization orbital for state 2p

   izeta = 1
                     rc =    5.658549
                 energy =    1.109913
                kinetic =    2.304789
    potential(screened) =   -1.194876
       potential(ionic) =   -4.013592
atom: Total number of Sankey-type orbitals: 13

atm_pop: Valence configuration (for local Pseudopot. screening):
 2s( 2.00)                                                            
 2p( 2.00)                                                            
Vna: chval, zval:    4.00000   4.00000

Vna:  Cut-off radius for the neutral-atom potential:   5.658549
comcore: Pseudo-core radius Rcore=  1.791422

atom: _________________________________________________________________________

<basis_specs>
===============================================================================
B                    Z=   5    Mass=  10.810        Charge= 0.17977+309
Lmxo=1 Lmxkb= 3    BasisType=split      Semic=F
L=0  Nsemic=0  Cnfigmx=2
          n=1  nzeta=2  polorb=0
            splnorm:   0.15000    
               vcte:    0.0000    
               rinn:    0.0000    
                rcs:    0.0000      0.0000    
            lambdas:    1.0000      1.0000    
L=1  Nsemic=0  Cnfigmx=2
          n=1  nzeta=2  polorb=1
            splnorm:   0.15000    
               vcte:    0.0000    
               rinn:    0.0000    
                rcs:    0.0000      0.0000    
            lambdas:    1.0000      1.0000    
-------------------------------------------------------------------------------
L=0  Nkbl=1  erefs: 0.17977+309
L=1  Nkbl=1  erefs: 0.17977+309
L=2  Nkbl=1  erefs: 0.17977+309
L=3  Nkbl=1  erefs: 0.17977+309
===============================================================================
</basis_specs>

atom: Called for B                     (Z =   5)

read_vps: Pseudopotential generation method:
read_vps: ATM3      Troullier-Martins                       
Total valence charge:    3.00000

read_vps: Pseudopotential includes a core correction:
read_vps: Pseudo-core for xc-correction

xc_check: Exchange-correlation functional:
xc_check: GGA Perdew, Burke & Ernzerhof 1996
V l=0 = -2*Zval/r beyond r=  1.7165
V l=1 = -2*Zval/r beyond r=  1.7165
V l=2 = -2*Zval/r beyond r=  1.7165
V l=3 = -2*Zval/r beyond r=  1.6951
All V_l potentials equal beyond r=  1.7165
This should be close to max(r_c) in ps generation
All pots = -2*Zval/r beyond r=  1.7165

VLOCAL1: 99.0% of the norm of Vloc inside     14.733 Ry
VLOCAL1: 99.9% of the norm of Vloc inside     33.577 Ry
atom: Maximum radius for 4*pi*r*r*local-pseudopot. charge    2.04484
atom: Maximum radius for r*vlocal+2*Zval:    1.75994
GHOST: No ghost state for L =  0
GHOST: No ghost state for L =  1
GHOST: No ghost state for L =  2
GHOST: No ghost state for L =  3

KBgen: Kleinman-Bylander projectors: 
   l= 0   rc=  1.897051   el= -0.693730   Ekb=  4.595746   kbcos=  0.286105
   l= 1   rc=  1.920920   el= -0.265236   Ekb= -2.350715   kbcos= -0.315747
   l= 2   rc=  2.044840   el=  0.002055   Ekb= -0.690767   kbcos= -0.013822
   l= 3   rc=  2.149707   el=  0.003188   Ekb= -0.315358   kbcos= -0.002055

KBgen: Total number of  Kleinman-Bylander projectors:   16
atom: -------------------------------------------------------------------------

atom: SANKEY-TYPE ORBITALS:
atom: Selected multiple-zeta basis: split     

SPLIT: Orbitals with angular momentum L= 0

SPLIT: Basis orbitals for state 2s

SPLIT: PAO cut-off radius determined from an
SPLIT: energy shift=  0.007350 Ry

   izeta = 1
                 lambda =    1.000000
                     rc =    5.422032
                 energy =   -0.686029
                kinetic =    0.576707
    potential(screened) =   -1.262736
       potential(ionic) =   -3.271094

   izeta = 2
                 rmatch =    4.222573
              splitnorm =    0.150000
                 energy =   -0.602132
                kinetic =    0.858975
    potential(screened) =   -1.461107
       potential(ionic) =   -3.582536

SPLIT: Orbitals with angular momentum L= 1

SPLIT: Basis orbitals for state 2p

SPLIT: PAO cut-off radius determined from an
SPLIT: energy shift=  0.007350 Ry

   izeta = 1
                 lambda =    1.000000
                     rc =    6.790259
                 energy =   -0.258578
                kinetic =    1.481412
    potential(screened) =   -1.739989
       potential(ionic) =   -3.657461

   izeta = 2
                 rmatch =    4.608740
              splitnorm =    0.150000
                 energy =   -0.173757
                kinetic =    2.186690
    potential(screened) =   -2.360447
       potential(ionic) =   -4.464260

POLgen: Perturbative polarization orbital with L=  2

POLgen: Polarization orbital for state 2p

   izeta = 1
                     rc =    6.790259
                 energy =    0.684082
                kinetic =    1.471481
    potential(screened) =   -0.787399
       potential(ionic) =   -2.406985
atom: Total number of Sankey-type orbitals: 13

atm_pop: Valence configuration (for local Pseudopot. screening):
 2s( 2.00)                                                            
 2p( 1.00)                                                            
Vna: chval, zval:    3.00000   3.00000

Vna:  Cut-off radius for the neutral-atom potential:   6.790259
comcore: Pseudo-core radius Rcore=  2.122997

atom: _________________________________________________________________________

prinput: Basis input ----------------------------------------------------------

PAO.BasisType split     

%block ChemicalSpeciesLabel
    1    6 C                       # Species index, atomic number, species label
    2    5 B                       # Species index, atomic number, species label
%endblock ChemicalSpeciesLabel

%block PAO.Basis                 # Define Basis set
C                     2                    # Species label, number of l-shells
 n=2   0   2                         # n, l, Nzeta 
   4.633      3.432   
   1.000      1.000   
 n=2   1   2 P   1                   # n, l, Nzeta, Polarization, NzetaPol
   5.659      3.653   
   1.000      1.000   
B                     2                    # Species label, number of l-shells
 n=2   0   2                         # n, l, Nzeta 
   5.422      4.223   
   1.000      1.000   
 n=2   1   2 P   1                   # n, l, Nzeta, Polarization, NzetaPol
   6.790      4.609   
   1.000      1.000   
%endblock PAO.Basis

prinput: ----------------------------------------------------------------------

coor:   Atomic-coordinates input format  =     Cartesian coordinates
coor:                                          (in Angstroms)

siesta: Atomic coordinates (Bohr) and species
siesta:      2.23554   1.32097   0.00000  1        1
siesta:      4.56367   2.66461   0.00000  1        2
siesta:     32.50328  21.48508   0.00000  1        3
siesta:     34.83141  22.82873   0.00000  1        4
siesta:     34.83116  17.45226   0.00000  1        5
siesta:     37.15930  18.79590   0.00000  1        6
siesta:     32.50291  13.41944   0.00000  1        7
siesta:     34.83104  14.76308   0.00000  1        8
siesta:     30.17465   9.38661   0.00000  1        9
siesta:     32.50278  10.73026   0.00000  1       10
siesta:     27.84639   5.35379   0.00000  1       11
siesta:     30.17453   6.69743   0.00000  1       12
siesta:     27.84714  21.48508   0.00000  1       13
siesta:     30.17527  22.82873   0.00000  1       14
siesta:      6.89168   1.32097   0.00000  1       15
siesta:      9.21981   2.66461   0.00000  1       16
siesta:     13.87595   2.66461   0.00000  1       17
siesta:     16.20396   1.32097   0.00000  1       18
siesta:     18.53210   2.66461   0.00000  1       19
siesta:     23.19013   2.66461   0.00000  1       20
siesta:     25.51813   1.32097   0.00000  1       21
siesta:     27.84627   2.66461   0.00000  1       22
siesta:      6.89193   6.69743   0.00000  1       23
siesta:      9.21994   5.35379   0.00000  1       24
siesta:     11.54807   6.69743   0.00000  1       25
siesta:     13.87608   5.35379   0.00000  1       26
siesta:     16.20421   6.69743   0.00000  1       27
siesta:     18.53411   5.35379   0.00000  1       28
siesta:     20.86224   6.69743   0.00000  1       29
siesta:     23.19025   5.35379   0.00000  1       30
siesta:     25.51838   6.69743   0.00000  1       31
siesta:      9.22019  10.73026   0.00000  1       32
siesta:     11.54820   9.38661   0.00000  1       33
siesta:     13.87633  10.73026   0.00000  1       34
siesta:     18.53247  10.73026   0.00000  1       35
siesta:     20.86237   9.38661   0.00000  1       36
siesta:     23.19050  10.73026   0.00000  1       37
siesta:      9.22031  13.41944   0.00000  1       38
siesta:     11.54845  14.76308   0.00000  1       39
siesta:     13.87645  13.41944   0.00000  1       40
siesta:     16.20459  14.76308   0.00000  1       41
siesta:     18.53448  13.41944   0.00000  1       42
siesta:     20.86262  14.76308   0.00000  1       43
siesta:     13.87670  18.79590   0.00000  1       44
siesta:     16.20471  17.45226   0.00000  1       45
siesta:     18.53284  18.79590   0.00000  1       46
siesta:     13.87683  21.48508   0.00000  1       47
siesta:     16.20496  22.82873   0.00000  1       48
siesta:     18.53486  21.48508   0.00000  1       49
siesta:     20.86299  22.82873   0.00000  1       50
siesta:     27.84664  10.73026   0.00000  1       51
siesta:     23.19063  13.41944   0.00000  1       52
siesta:     25.51876  14.76308   0.00000  1       53
siesta:     23.19088  18.79590   0.00000  1       54
siesta:     27.84677  13.41944   0.00000  1       55
siesta:     30.17490  14.76308   0.00000  1       56
siesta:     25.51888  17.45226   0.00000  1       57
siesta:     27.84702  18.79590   0.00000  1       58
siesta:     23.19100  21.48508   0.00000  1       59
siesta:     25.51913  22.82873   0.00000  1       60
siesta:     30.17503  17.45226   0.00000  1       61
siesta:     32.50316  18.79590   0.00000  1       62
siesta:     39.48945  22.82873   0.00000  1       63
siesta:     11.54782   1.32097   0.00000  2       64
siesta:     20.86199   1.32097   0.00000  2       65
siesta:      4.56380   5.35379   0.00000  2       66
siesta:      6.89205   9.38661   0.00000  2       67
siesta:     16.20434   9.38661   0.00000  2       68
siesta:     11.54857  17.45226   0.00000  2       69
siesta:     25.51851   9.38661   0.00000  2       70
siesta:     20.86274  17.45226   0.00000  2       71
siesta:     37.16131  21.48508   0.00000  2       72

siesta: System type = slab      

initatomlists: Number of atoms, orbitals, and projectors:     72   936  1152

siesta: ******************** Simulation parameters ****************************
siesta:
siesta: The following are some of the parameters of the simulation.
siesta: A complete list of the parameters used, including default values,
siesta: can be found in file out.fdf
siesta:
redata: Non-Collinear-spin run           =     F
redata: SpinPolarized (Up/Down) run      =     F
redata: Number of spin components        =     1
redata: Long output                      =     F
redata: Number of Atomic Species         =        2
redata: Charge density info will appear in .RHO file
redata: Write Mulliken Pop.              =     NO
redata: Mesh Cutoff                      =   200.0000  Ry
redata: Net charge of the system         =     0.0000 |e|
redata: Max. number of SCF Iter          =      500
redata: SCF convergence failure will abort job
redata: Performing Pulay mixing using    =    10 iterations
redata: Mix DM in first SCF step ?       =     F
redata: Write Pulay info on disk?        =     F
redata: Discard 1st Pulay DM after  kick =     F
redata: New DM Mixing Weight             =     0.0500
redata: New DM Occupancy tolerance       = 0.000000000001
redata: No kicks to SCF
redata: DM Mixing Weight for Kicks       =     0.5000
redata: DM Tolerance for SCF             =     0.000100
redata: Require Energy convergence for SCF =     F
redata: DM Energy tolerance for SCF      =     0.000100 eV
redata: Require Harris convergence for SCF =     F
redata: DM Harris energy tolerance for SCF =     0.000100 eV
redata: Using Saved Data (generic)   =     F
redata: Use continuation files for DM    =     T
redata: Neglect nonoverlap interactions  =     F
redata: Method of Calculation            =     Diagonalization
redata: Divide and Conquer               =     T
redata: Electronic Temperature           =     0.0019  Ry
redata: Fix the spin of the system       =     F
redata: Dynamics option                  =     Verlet MD run
redata: Initial MD time step             =        1
redata:   Final MD time step             =        1
redata: Length of MD time step           =     1.0000  fs
redata: Initial Temperature of MD run    =     0.0000  K
redata: Perform a MD quench              =     F
redata: ***********************************************************************
Total number of electrons:   279.000000
Total ionic charge:   279.000000

* ProcessorY, Blocksize:    2  24

k-point displ. along   1 input, could be:     0.00    0.50
k-point displ. along   2 input, could be:     0.00    0.50
 Kpoints in:          364 . Kpoints trimmed:          352

siesta: k-grid: Number of k-points =   352
siesta: k-grid: Cutoff (effective) =     5.000 Ang
siesta: k-grid: Supercell and displacements
siesta: k-grid:   26   0   0      0.000
siesta: k-grid:    0  26   0      0.000
siesta: k-grid:    0   0   1      0.000
Naive supercell factors:     2    2    2

superc: Internal auxiliary supercell:     2 x     2 x     2  =       8
superc: Number of atoms, orbitals, and projectors:    576   7488   9216

* Maximum dynamic memory allocated =     6 MB

siesta:                 ==============================
                            Begin MD step =      1
                        ==============================

superc: Internal auxiliary supercell:     2 x     2 x     2  =       8
superc: Number of atoms, orbitals, and projectors:    576   7488   9216

outcell: Unit cell vectors (Ang):
       14.785000    0.000000    0.000000
        7.393000   12.805052    0.000000
        0.000000    0.000000   10.000000

outcell: Cell vector modules (Ang)   :   14.785000   14.786000   10.000000
outcell: Cell angles (23,13,12) (deg):     90.0000     90.0000     60.0000
outcell: Cell volume (Ang**3)        :   1893.2269
New_DM. Step:     1
Initializing Density Matrix...

InitMesh: MESH =   120 x   120 x    90 =     1296000
InitMesh: Mesh cutoff (required, used) =   200.000   223.865 Ry

* Maximum dynamic memory allocated =   207 MB

stepf: Fermi-Dirac step function

siesta: Program's energy decomposition (eV):
siesta: Ebs     =     -4462.601073
siesta: Eions   =     17250.500670
siesta: Ena     =      3769.682517
siesta: Ekin    =      5903.534022
siesta: Enl     =       294.206461
siesta: DEna    =        -0.000010
siesta: DUscf   =         0.000000
siesta: DUext   =         0.000000
siesta: Exc     =     -3961.768703
siesta: eta*DQ  =         0.000000
siesta: Emadel  =         0.000000
siesta: Emeta   =         0.000000
siesta: Emolmec =         0.000000
siesta: Ekinion =         0.000000
siesta: Eharris =    -11173.601664
siesta: Etot    =    -11244.846383
siesta: FreeEng =    -11244.846383

siesta: iscf   Eharris(eV)      E_KS(eV)   FreeEng(eV)   dDmax  Ef(eV)
siesta:    1   -11173.6017   -11244.8464   -11244.8464  1.9110 -8.1247
timer: Routine,Calls,Time,% = IterSCF        1    6749.668  99.84
elaps: Routine,Calls,Wall,% = IterSCF        1     845.052  99.88
siesta:    2   -11205.3079   -11123.0911   -11123.1222  0.7928 -3.4262
siesta:    3   -11155.4214   -11162.3205   -11162.3656  0.5141 -5.2722
siesta:    4   -11151.8744   -11160.0692   -11160.0913  0.4635 -5.3686
siesta:    5   -11146.3712   -11151.6654   -11151.7092  0.2958 -5.6435
siesta:    6   -11145.5955   -11147.7314   -11147.7612  0.2118 -5.7151
siesta:    7   -11148.1975   -11143.2288   -11143.2622  0.0826 -5.8913
siesta:    8   -11146.0590   -11142.5423   -11142.5715  0.0556 -5.8939
siesta:    9   -11145.4649   -11142.2737   -11142.3075  0.0447 -5.9045
siesta:   10   -11145.0286   -11142.6335   -11142.6673  0.0347 -5.9639
siesta:   11   -11144.9581   -11142.8888   -11142.9203  0.0294 -5.9727
siesta:   12   -11144.8966   -11143.5686   -11143.5994  0.0179 -5.9716
siesta:   13   -11144.8962   -11143.7751   -11143.8086  0.0151 -5.9697
siesta:   14   -11144.8944   -11144.2638   -11144.2974  0.0082 -5.9588
siesta:   15   -11144.8901   -11144.7123   -11144.7458  0.0039 -5.9564
siesta:   16   -11144.8897   -11144.8173   -11144.8506  0.0029 -5.9570
siesta:   17   -11144.8888   -11144.8809   -11144.9143  0.0026 -5.9556
siesta:   18   -11144.8888   -11144.8776   -11144.9109  0.0021 -5.9548
siesta:   19   -11144.8888   -11144.8935   -11144.9268  0.0012 -5.9554
siesta:   20   -11144.8887   -11144.9103   -11144.9436  0.0006 -5.9554
siesta:   21   -11144.8887   -11144.9070   -11144.9403  0.0005 -5.9552
siesta:   22   -11144.8887   -11144.9010   -11144.9342  0.0003 -5.9553
siesta:   23   -11144.8887   -11144.8930   -11144.9263  0.0001 -5.9552
siesta:   24   -11144.8887   -11144.8901   -11144.9233  0.0001 -5.9552

siesta: E_KS(eV) =           -11144.8867

siesta: E_KS - E_eggbox =    -11144.8867

siesta: Atomic forces (eV/Ang):
----------------------------------------
   Tot    0.203604   -0.126186    0.000000
----------------------------------------
   Max    3.901244
   Res    1.194210    sqrt( Sum f_i^2 / 3N )
----------------------------------------
   Max    3.901244    constrained

Stress-tensor-Voigt (kbar):     -119.40     -118.13       -0.25       -0.90        0.00        0.00
(Free)E + p*V (eV/cell)   -11051.2638
Target enthalpy (eV/cell)   -11144.9200

siesta: Stress tensor (static) (eV/Ang**3):
        -0.074520   -0.000563    0.000000
        -0.000563   -0.073730    0.000000
         0.000000    0.000000   -0.000157

siesta: Pressure (static):         79.25906025  kBar

siesta: Stress tensor (total) (eV/Ang**3):
        -0.074520   -0.000563    0.000000
        -0.000563   -0.073730    0.000000
         0.000000    0.000000   -0.000157

siesta: Pressure (total):         79.25906025  kBar

siesta: Temp_ion =       0.000 K

* Maximum dynamic memory allocated =   222 MB

siesta: Program's energy decomposition (eV):
siesta: Ebs     =     -3691.182057
siesta: Eions   =     17250.500670
siesta: Ena     =      3769.682517
siesta: Ekin    =      7407.753845
siesta: Enl     =      -692.184868
siesta: DEna    =      -342.345248
siesta: DUscf   =        36.514524
siesta: DUext   =         0.000000
siesta: Exc     =     -4073.806825
siesta: eta*DQ  =         0.000000
siesta: Emadel  =         0.000000
siesta: Emeta   =         0.000000
siesta: Emolmec =         0.000000
siesta: Ekinion =         0.000000
siesta: Eharris =    -11144.888683
siesta: Etot    =    -11144.886725
siesta: FreeEng =    -11144.919978

siesta: Final energy (eV):
siesta:  Band Struct. =   -3691.182057
siesta:       Kinetic =    7407.753845
siesta:       Hartree =   21695.806505
siesta:    Ext. field =       0.000000
siesta:   Exch.-corr. =   -4073.806825
siesta:  Ion-electron =  -50131.158921
siesta:       Ion-ion =   13956.518670
siesta:       Ekinion =       0.000000
siesta:         Total =  -11144.886725

siesta: Atomic forces (eV/Ang):
siesta:      1    0.584833   -0.420656    0.000000
siesta:      2   -0.512968   -3.901244    0.000000
siesta:      3    0.150777    0.347956    0.000000
siesta:      4   -3.053565   -1.484429    0.000000
siesta:      5    0.441974   -0.080756    0.000000
siesta:      6   -2.856872   -1.926011    0.000000
siesta:      7   -0.364997   -0.368804    0.000000
siesta:      8   -0.578632    0.315761    0.000000
siesta:      9   -0.699666    1.259796    0.000000
siesta:     10   -3.073158    1.943724    0.000000
siesta:     11   -0.201134    0.469101    0.000000
siesta:     12   -3.127248    1.164694    0.000000
siesta:     13   -0.350223   -0.279954    0.000000
siesta:     14   -0.076096   -0.638267    0.000000
siesta:     15   -0.539913   -0.131906    0.000000
siesta:     16   -2.535030    1.495521    0.000000
siesta:     17    2.892681    1.435155    0.000000
siesta:     18   -0.026024    1.423949    0.000000
siesta:     19   -2.779207    1.717256    0.000000
siesta:     20    2.781528    2.113840    0.000000
siesta:     21    1.030004    0.204356    0.000000
siesta:     22    0.019002   -0.264403    0.000000
siesta:     23    3.172789   -1.725734    0.000000
siesta:     24   -0.926136    0.055626    0.000000
siesta:     25    0.219656   -0.130929    0.000000
siesta:     26    1.079685   -0.272861    0.000000
siesta:     27   -0.027851   -3.193682    0.000000
siesta:     28   -1.041164   -0.445442    0.000000
siesta:     29   -0.190102    0.057098    0.000000
siesta:     30    0.922462   -0.728785    0.000000
siesta:     31   -0.092221   -3.451300    0.000000
siesta:     32    2.714477    2.025445    0.000000
siesta:     33    0.218063    1.098747    0.000000
siesta:     34   -2.793421    1.513023    0.000000
siesta:     35    2.756410    1.535685    0.000000
siesta:     36   -0.200940    0.998941    0.000000
siesta:     37   -2.607993    1.650201    0.000000
siesta:     38    1.319326   -0.794933    0.000000
siesta:     39    0.044668   -3.243282    0.000000
siesta:     40   -0.873136   -0.643355    0.000000
siesta:     41   -0.002451   -0.184043    0.000000
siesta:     42    0.745861   -0.623561    0.000000
siesta:     43    0.105588   -3.098606    0.000000
siesta:     44    3.268576    1.484971    0.000000
siesta:     45   -0.187813    1.198748    0.000000
siesta:     46   -2.755216    1.715704    0.000000
siesta:     47    0.505382    0.537693    0.000000
siesta:     48   -0.030780    0.341675    0.000000
siesta:     49   -0.313235   -0.105048    0.000000
siesta:     50   -0.251474    0.270472    0.000000
siesta:     51    3.057290    1.575842    0.000000
siesta:     52   -1.179966   -0.708413    0.000000
siesta:     53    0.472399    0.219191    0.000000
siesta:     54    2.802887    1.920784    0.000000
siesta:     55    0.344227    0.044829    0.000000
siesta:     56   -0.119467    0.409530    0.000000
siesta:     57    0.215032    0.435852    0.000000
siesta:     58    0.225813   -0.197449    0.000000
siesta:     59    1.178306   -0.849639    0.000000
siesta:     60   -0.168604   -3.352738    0.000000
siesta:     61    0.184147    0.060157    0.000000
siesta:     62   -0.709403   -0.389360    0.000000
siesta:     63    3.645810    2.048534    0.000000
siesta:     64   -0.128184   -0.050386    0.000000
siesta:     65   -0.525122   -0.498987    0.000000
siesta:     66    0.300559   -0.084226    0.000000
siesta:     67    0.416172   -0.206005    0.000000
siesta:     68    0.024437    0.001123    0.000000
siesta:     69   -0.725720   -0.242354    0.000000
siesta:     70    0.106783    0.109201    0.000000
siesta:     71    0.035909    0.051169    0.000000
siesta:     72   -1.154774   -0.659986    0.000000
siesta: ----------------------------------------
siesta:    Tot    0.203604   -0.126186    0.000000

siesta: Stress tensor (static) (eV/Ang**3):
siesta:    -0.074520   -0.000563    0.000000
siesta:    -0.000563   -0.073730    0.000000
siesta:     0.000000    0.000000   -0.000157

siesta: Cell volume =       1893.226895 Ang**3

siesta: Pressure (static):
siesta:                Solid            Molecule  Units
siesta:           0.00053878          0.00074120  Ry/Bohr**3
siesta:           0.04946908          0.06805435  eV/Ang**3
siesta:          79.25906025        109.03626707  kBar
(Free)E+ p_basis*V_orbitals  =      -11111.338779
(Free)Eharris+ p_basis*V_orbitals  =      -11111.337412

siesta: Electric dipole (a.u.)  =    0.000000    0.000000    0.000000
siesta: Electric dipole (Debye) =    0.000000    0.000000    0.000000

* Maximum dynamic memory allocated : Node    0 =   222 MB
* Maximum dynamic memory allocated : Node    1 =    80 MB
* Maximum dynamic memory allocated : Node    2 =    84 MB
* Maximum dynamic memory allocated : Node    3 =   212 MB
* Maximum dynamic memory allocated : Node    4 =   222 MB
* Maximum dynamic memory allocated : Node    5 =    81 MB
* Maximum dynamic memory allocated : Node    6 =    83 MB
* Maximum dynamic memory allocated : Node    7 =   204 MB

* Maximum memory occured during matrixMtoO                    

timer: CPU execution times:
timer:  Routine       Calls   Time/call    Tot.time        %
timer:  siesta            1  160166.782  160166.782   100.00
timer:  Setup             1       3.070       3.070     0.00
timer:  bands             1       0.010       0.010     0.00
timer:  writewave         1       0.017       0.017     0.00
timer:  KSV_init          1       0.004       0.004     0.00
timer:  IterMD            1  160155.560  160155.560    99.99
timer:  hsparse           1       0.393       0.393     0.00
timer:  overlap           1       6.394       6.394     0.00
timer:  IterSCF          24    6664.951  159958.822    99.87
timer:  kinefsm           2       3.311       6.622     0.00
timer:  nlefsm            2      20.311      40.621     0.03
timer:  DHSCF            25     104.621    2615.530     1.63
timer:  DHSCF1            1       0.988       0.988     0.00
timer:  DHSCF2            1      41.730      41.730     0.03
timer:  REORD           202       0.010       2.018     0.00
timer:  POISON           26       2.258      58.700     0.04
timer:  DHSCF3           25     101.379    2534.487     1.58
timer:  rhoofd           25      19.900     497.505     0.31
timer:  cellXC           25       3.500      87.492     0.05
timer:  vmat             25      52.051    1301.287     0.81
timer:  MolMec            2       0.000       0.000     0.00
timer:  diagon           24    6559.123  157418.960    98.28
timer:  c-eigval       8448       6.684   56467.963    35.26
timer:  c-buildHS      8448       0.123    1036.153     0.65
timer:  cdiag         16896       6.893  116470.437    72.72
timer:  cdiag1        16896       0.428    7223.558     4.51
timer:  cdiag2        16896       1.905   32179.126    20.09
timer:  cdiag3        16896       3.953   66788.036    41.70
timer:  cdiag4        16896       0.228    3857.591     2.41
timer:  c-eigvec       8448       7.298   61650.144    38.49
timer:  c-buildD       8448       4.644   39230.354    24.49
timer:  DHSCF4            1      36.990      36.990     0.02
timer:  dfscf             1      34.449      34.449     0.02
timer:  overfsm           1       0.430       0.430     0.00
timer:  optical           1       7.129       7.129     0.00
  

elaps: ELAPSED times:
elaps:  Routine       Calls   Time/call    Tot.time        %
elaps:  siesta            1   20044.255   20044.255   100.00
elaps:  Setup             1       0.383       0.383     0.00
elaps:  bands             1       0.001       0.001     0.00
elaps:  writewave         1       0.002       0.002     0.00
elaps:  KSV_init          1       0.000       0.000     0.00
elaps:  IterMD            1   20042.852   20042.852    99.99
elaps:  hsparse           1       0.050       0.050     0.00
elaps:  overlap           1       0.529       0.529     0.00
elaps:  IterSCF          24     834.107   20018.576    99.87
elaps:  kinefsm           2       0.278       0.557     0.00
elaps:  nlefsm            2       2.538       5.076     0.03
elaps:  DHSCF            25      13.233     330.833     1.65
elaps:  DHSCF1            1       0.127       0.127     0.00
elaps:  DHSCF2            1       5.217       5.217     0.03
elaps:  REORD           202       0.001       0.279     0.00
elaps:  POISON           26       0.282       7.332     0.04
elaps:  DHSCF3           25      12.683     317.080     1.58
elaps:  rhoofd           25       4.294     107.350     0.54
elaps:  cellXC           25       0.437      10.931     0.05
elaps:  vmat             25       6.511     162.786     0.81
elaps:  MolMec            2       0.000       0.000     0.00
elaps:  diagon           24     820.875   19701.008    98.29
elaps:  c-eigval       8448       0.836    7064.933    35.25
elaps:  c-buildHS      8448       0.017     140.913     0.70
elaps:  cdiag         16896       0.851   14377.902    71.73
elaps:  cdiag1        16896       0.053     896.230     4.47
elaps:  cdiag2        16896       0.238    4026.207    20.09
elaps:  cdiag3        16896       0.495    8368.134    41.75
elaps:  cdiag4        16896       0.029     497.310     2.48
elaps:  c-eigvec       8448       0.894    7555.061    37.69
elaps:  c-buildD       8448       0.600    5070.946    25.30
elaps:  DHSCF4            1       8.227       8.227     0.04
elaps:  dfscf             1       7.740       7.740     0.04
elaps:  overfsm           1       0.053       0.053     0.00
elaps:  optical           1       0.000       0.000     0.00
  
>> End of run:   1-DEC-2015   2:36:50
