Siesta Version:                                        siesta-3.2-pl-3
Architecture  : x86_64-unknown-linux-gnu--unknown
Compiler flags: mpiifort -g -O2 -fPIC -xSSE4.1 -fp-model source -shared-intel 
PARALLEL version

* Running on    8 nodes in parallel
>> Start of run:   8-DEC-2015  14:28:52

                           ***********************       
                           *  WELCOME TO SIESTA  *       
                           ***********************       

reinit: Reading from standard input
************************** Dump of input data file ****************************
#(1) General system descriptors
SystemName            GRP_doping    # Descriptive name of the system
SystemLabel           GRP_doping    # Short name for naming files
%include STRUCT.fdf
%include KPT.fdf
%include BASIS.fdf
#%include TS.fdf # for transiesta calculation
#(4) DFT, Grid, SCF
XC.functional         GGA           # LDA or GGA (default = LDA)
XC.authors            PBE           # CA (Ceperley-Aldr) = PZ
                                    #    (Perdew-Zunger) - LDA - Default
                                    # PW92 (Perdew-Wang-92) - LDA
                                    # PBE (Perdew-Burke-Ernzerhof) - GGA
MeshCutoff            200.000000    Ry      # Default: 50.0 Ry ~ 0.444 Bohr
                                    #         100.0 Ry ~ 0.314 Bohr
MaxSCFIterations      500           # Default: 50
DM.MixingWeight       0.05          # Default: 0.25
DM.NumberPulay        10            # Default: 0
DM.PulayOnFile        F             # SystemLabel.P1, SystemLabel.P2
DM.Tolerance          1.d-4         # Default: 1.d-4
DM.UseSaveDM          .true.        # because of the bug
SCFMustConverge       .true.
NeglNonOverlapInt     F             # Default: F
#(5) Eigenvalue problem: order-N or diagonalization
SolutionMethod        Diagon        # or Transiesta
ElectronicTemperature 300.0 K       # Default: 300.0 K
#(6) Molecular dynamics and relaxations
#MD.TypeOfRun          CG            # Type of dynamics:
#MD.VariableCell       F
#MD.NumCGsteps         0           # 0 for single-point / 100 for gopt
#MD.MaxCGDispl         0.2 Bohr      # Default: 0.2 Bohr
#MD.MaxForceTol        0.02 eV/Ang   # Default: 0.04 eV/Ang
#MD.MaxStressTol       1.0 GPa       # Default: 1.0 GPa
# Geometry Constraints
#%block GeometryConstraints
#	position from 1 to 44
#%endblock GeometryConstraints
BandLinesScale   pi/a
%block BandLines
 1   0.00000000  0.00000000  0.00000000
50   0.00000000  0.07809418  0.00000000
50   0.04509075  0.07809242  0.00000000
20   0.00000000  0.00000000  0.00000000
%endblock BandLines
************************** End of input data file *****************************

reinit: -----------------------------------------------------------------------
reinit: System Name: GRP_doping
reinit: -----------------------------------------------------------------------
reinit: System Label: GRP_doping                                                  
reinit: -----------------------------------------------------------------------

initatom: Reading input for the pseudopotentials and atomic orbitals ----------
 Species number:            1  Label: C Atomic number:           6
 Species number:            2  Label: B Atomic number:           5
Ground state valence configuration:   2s02  2p02
Reading pseudopotential information in formatted form from C.psf

Valence configuration for pseudopotential generation:
2s( 2.00) rc: 1.54
2p( 2.00) rc: 1.54
3d( 0.00) rc: 1.54
4f( 0.00) rc: 1.54
Ground state valence configuration:   2s02  2p01
Reading pseudopotential information in formatted form from B.psf

Valence configuration for pseudopotential generation:
2s( 2.00) rc: 1.74
2p( 1.00) rc: 1.74
3d( 0.00) rc: 1.74
4f( 0.00) rc: 1.74
For C, standard SIESTA heuristics set lmxkb to 3
 (one more than the basis l, including polarization orbitals).
Use PS.lmax or PS.KBprojectors blocks to override.
For B, standard SIESTA heuristics set lmxkb to 3
 (one more than the basis l, including polarization orbitals).
Use PS.lmax or PS.KBprojectors blocks to override.

<basis_specs>
===============================================================================
C                    Z=   6    Mass=  12.010        Charge= 0.17977+309
Lmxo=1 Lmxkb= 3    BasisType=split      Semic=F
L=0  Nsemic=0  Cnfigmx=2
          n=1  nzeta=2  polorb=0
            splnorm:   0.15000    
               vcte:    0.0000    
               rinn:    0.0000    
                rcs:    0.0000      0.0000    
            lambdas:    1.0000      1.0000    
L=1  Nsemic=0  Cnfigmx=2
          n=1  nzeta=2  polorb=1
            splnorm:   0.15000    
               vcte:    0.0000    
               rinn:    0.0000    
                rcs:    0.0000      0.0000    
            lambdas:    1.0000      1.0000    
-------------------------------------------------------------------------------
L=0  Nkbl=1  erefs: 0.17977+309
L=1  Nkbl=1  erefs: 0.17977+309
L=2  Nkbl=1  erefs: 0.17977+309
L=3  Nkbl=1  erefs: 0.17977+309
===============================================================================
</basis_specs>

atom: Called for C                     (Z =   6)

read_vps: Pseudopotential generation method:
read_vps: ATM3      Troullier-Martins                       
Total valence charge:    4.00000

read_vps: Pseudopotential includes a core correction:
read_vps: Pseudo-core for xc-correction

xc_check: Exchange-correlation functional:
xc_check: GGA Perdew, Burke & Ernzerhof 1996
V l=0 = -2*Zval/r beyond r=  1.5227
V l=1 = -2*Zval/r beyond r=  1.5227
V l=2 = -2*Zval/r beyond r=  1.5227
V l=3 = -2*Zval/r beyond r=  1.5038
All V_l potentials equal beyond r=  1.5227
This should be close to max(r_c) in ps generation
All pots = -2*Zval/r beyond r=  1.5227

VLOCAL1: 99.0% of the norm of Vloc inside     18.722 Ry
VLOCAL1: 99.9% of the norm of Vloc inside     42.668 Ry
atom: Maximum radius for 4*pi*r*r*local-pseudopot. charge    1.83678
atom: Maximum radius for r*vlocal+2*Zval:    1.58088
GHOST: No ghost state for L =  0
GHOST: No ghost state for L =  1
GHOST: No ghost state for L =  2
GHOST: No ghost state for L =  3

KBgen: Kleinman-Bylander projectors: 
   l= 0   rc=  1.704034   el= -1.009801   Ekb=  5.335044   kbcos=  0.316824
   l= 1   rc=  1.704034   el= -0.388707   Ekb= -3.785862   kbcos= -0.366464
   l= 2   rc=  1.791422   el=  0.001971   Ekb= -0.970471   kbcos= -0.009212
   l= 3   rc=  1.859892   el=  0.003065   Ekb= -0.399525   kbcos= -0.001223

KBgen: Total number of  Kleinman-Bylander projectors:   16
atom: -------------------------------------------------------------------------

atom: SANKEY-TYPE ORBITALS:
atom: Selected multiple-zeta basis: split     

SPLIT: Orbitals with angular momentum L= 0

SPLIT: Basis orbitals for state 2s

SPLIT: PAO cut-off radius determined from an
SPLIT: energy shift=  0.007350 Ry

   izeta = 1
                 lambda =    1.000000
                     rc =    4.632753
                 energy =   -1.002270
                kinetic =    0.855760
    potential(screened) =   -1.858031
       potential(ionic) =   -5.417575

   izeta = 2
                 rmatch =    3.431921
              splitnorm =    0.150000
                 energy =   -0.867111
                kinetic =    1.300804
    potential(screened) =   -2.167915
       potential(ionic) =   -5.962684

SPLIT: Orbitals with angular momentum L= 1

SPLIT: Basis orbitals for state 2p

SPLIT: PAO cut-off radius determined from an
SPLIT: energy shift=  0.007350 Ry

   izeta = 1
                 lambda =    1.000000
                     rc =    5.658549
                 energy =   -0.381140
                kinetic =    2.399701
    potential(screened) =   -2.780841
       potential(ionic) =   -6.206085

   izeta = 2
                 rmatch =    3.653288
              splitnorm =    0.150000
                 energy =   -0.249149
                kinetic =    3.542762
    potential(screened) =   -3.791911
       potential(ionic) =   -7.581078

POLgen: Perturbative polarization orbital with L=  2

POLgen: Polarization orbital for state 2p

   izeta = 1
                     rc =    5.658549
                 energy =    1.109913
                kinetic =    2.304789
    potential(screened) =   -1.194876
       potential(ionic) =   -4.013592
atom: Total number of Sankey-type orbitals: 13

atm_pop: Valence configuration (for local Pseudopot. screening):
 2s( 2.00)                                                            
 2p( 2.00)                                                            
Vna: chval, zval:    4.00000   4.00000

Vna:  Cut-off radius for the neutral-atom potential:   5.658549
comcore: Pseudo-core radius Rcore=  1.791422

atom: _________________________________________________________________________

<basis_specs>
===============================================================================
B                    Z=   5    Mass=  10.810        Charge= 0.17977+309
Lmxo=1 Lmxkb= 3    BasisType=split      Semic=F
L=0  Nsemic=0  Cnfigmx=2
          n=1  nzeta=2  polorb=0
            splnorm:   0.15000    
               vcte:    0.0000    
               rinn:    0.0000    
                rcs:    0.0000      0.0000    
            lambdas:    1.0000      1.0000    
L=1  Nsemic=0  Cnfigmx=2
          n=1  nzeta=2  polorb=1
            splnorm:   0.15000    
               vcte:    0.0000    
               rinn:    0.0000    
                rcs:    0.0000      0.0000    
            lambdas:    1.0000      1.0000    
-------------------------------------------------------------------------------
L=0  Nkbl=1  erefs: 0.17977+309
L=1  Nkbl=1  erefs: 0.17977+309
L=2  Nkbl=1  erefs: 0.17977+309
L=3  Nkbl=1  erefs: 0.17977+309
===============================================================================
</basis_specs>

atom: Called for B                     (Z =   5)

read_vps: Pseudopotential generation method:
read_vps: ATM3      Troullier-Martins                       
Total valence charge:    3.00000

read_vps: Pseudopotential includes a core correction:
read_vps: Pseudo-core for xc-correction

xc_check: Exchange-correlation functional:
xc_check: GGA Perdew, Burke & Ernzerhof 1996
V l=0 = -2*Zval/r beyond r=  1.7165
V l=1 = -2*Zval/r beyond r=  1.7165
V l=2 = -2*Zval/r beyond r=  1.7165
V l=3 = -2*Zval/r beyond r=  1.6951
All V_l potentials equal beyond r=  1.7165
This should be close to max(r_c) in ps generation
All pots = -2*Zval/r beyond r=  1.7165

VLOCAL1: 99.0% of the norm of Vloc inside     14.733 Ry
VLOCAL1: 99.9% of the norm of Vloc inside     33.577 Ry
atom: Maximum radius for 4*pi*r*r*local-pseudopot. charge    2.04484
atom: Maximum radius for r*vlocal+2*Zval:    1.75994
GHOST: No ghost state for L =  0
GHOST: No ghost state for L =  1
GHOST: No ghost state for L =  2
GHOST: No ghost state for L =  3

KBgen: Kleinman-Bylander projectors: 
   l= 0   rc=  1.897051   el= -0.693730   Ekb=  4.595746   kbcos=  0.286105
   l= 1   rc=  1.920920   el= -0.265236   Ekb= -2.350715   kbcos= -0.315747
   l= 2   rc=  2.044840   el=  0.002055   Ekb= -0.690767   kbcos= -0.013822
   l= 3   rc=  2.149707   el=  0.003188   Ekb= -0.315358   kbcos= -0.002055

KBgen: Total number of  Kleinman-Bylander projectors:   16
atom: -------------------------------------------------------------------------

atom: SANKEY-TYPE ORBITALS:
atom: Selected multiple-zeta basis: split     

SPLIT: Orbitals with angular momentum L= 0

SPLIT: Basis orbitals for state 2s

SPLIT: PAO cut-off radius determined from an
SPLIT: energy shift=  0.007350 Ry

   izeta = 1
                 lambda =    1.000000
                     rc =    5.422032
                 energy =   -0.686029
                kinetic =    0.576707
    potential(screened) =   -1.262736
       potential(ionic) =   -3.271094

   izeta = 2
                 rmatch =    4.222573
              splitnorm =    0.150000
                 energy =   -0.602132
                kinetic =    0.858975
    potential(screened) =   -1.461107
       potential(ionic) =   -3.582536

SPLIT: Orbitals with angular momentum L= 1

SPLIT: Basis orbitals for state 2p

SPLIT: PAO cut-off radius determined from an
SPLIT: energy shift=  0.007350 Ry

   izeta = 1
                 lambda =    1.000000
                     rc =    6.790259
                 energy =   -0.258578
                kinetic =    1.481412
    potential(screened) =   -1.739989
       potential(ionic) =   -3.657461

   izeta = 2
                 rmatch =    4.608740
              splitnorm =    0.150000
                 energy =   -0.173757
                kinetic =    2.186690
    potential(screened) =   -2.360447
       potential(ionic) =   -4.464260

POLgen: Perturbative polarization orbital with L=  2

POLgen: Polarization orbital for state 2p

   izeta = 1
                     rc =    6.790259
                 energy =    0.684082
                kinetic =    1.471481
    potential(screened) =   -0.787399
       potential(ionic) =   -2.406985
atom: Total number of Sankey-type orbitals: 13

atm_pop: Valence configuration (for local Pseudopot. screening):
 2s( 2.00)                                                            
 2p( 1.00)                                                            
Vna: chval, zval:    3.00000   3.00000

Vna:  Cut-off radius for the neutral-atom potential:   6.790259
comcore: Pseudo-core radius Rcore=  2.122997

atom: _________________________________________________________________________

prinput: Basis input ----------------------------------------------------------

PAO.BasisType split     

%block ChemicalSpeciesLabel
    1    6 C                       # Species index, atomic number, species label
    2    5 B                       # Species index, atomic number, species label
%endblock ChemicalSpeciesLabel

%block PAO.Basis                 # Define Basis set
C                     2                    # Species label, number of l-shells
 n=2   0   2                         # n, l, Nzeta 
   4.633      3.432   
   1.000      1.000   
 n=2   1   2 P   1                   # n, l, Nzeta, Polarization, NzetaPol
   5.659      3.653   
   1.000      1.000   
B                     2                    # Species label, number of l-shells
 n=2   0   2                         # n, l, Nzeta 
   5.422      4.223   
   1.000      1.000   
 n=2   1   2 P   1                   # n, l, Nzeta, Polarization, NzetaPol
   6.790      4.609   
   1.000      1.000   
%endblock PAO.Basis

prinput: ----------------------------------------------------------------------

coor:   Atomic-coordinates input format  =     Cartesian coordinates
coor:                                          (in Angstroms)

siesta: Atomic coordinates (Bohr) and species
siesta:      2.23554   1.32097   0.00000  1        1
siesta:      4.56367   2.66461   0.00000  1        2
siesta:     32.50328  21.48508   0.00000  1        3
siesta:     34.83141  22.82873   0.00000  1        4
siesta:     34.83116  17.45226   0.00000  1        5
siesta:     37.15930  18.79590   0.00000  1        6
siesta:     32.50291  13.41944   0.00000  1        7
siesta:     34.83104  14.76308   0.00000  1        8
siesta:     30.17465   9.38661   0.00000  1        9
siesta:     32.50278  10.73026   0.00000  1       10
siesta:     27.84639   5.35379   0.00000  1       11
siesta:     30.17453   6.69743   0.00000  1       12
siesta:     27.84714  21.48508   0.00000  1       13
siesta:     30.17527  22.82873   0.00000  1       14
siesta:      6.89168   1.32097   0.00000  1       15
siesta:      9.21981   2.66461   0.00000  1       16
siesta:     11.54782   1.32097   0.00000  1       17
siesta:     13.87595   2.66461   0.00000  1       18
siesta:     16.20396   1.32097   0.00000  1       19
siesta:     18.53210   2.66461   0.00000  1       20
siesta:     20.86199   1.32097   0.00000  1       21
siesta:     23.19013   2.66461   0.00000  1       22
siesta:     25.51813   1.32097   0.00000  1       23
siesta:     27.84627   2.66461   0.00000  1       24
siesta:      4.56380   5.35379   0.00000  1       25
siesta:      6.89193   6.69743   0.00000  1       26
siesta:      9.21994   5.35379   0.00000  1       27
siesta:     11.54807   6.69743   0.00000  1       28
siesta:     13.87608   5.35379   0.00000  1       29
siesta:     16.20421   6.69743   0.00000  1       30
siesta:     18.53411   5.35379   0.00000  1       31
siesta:     20.86224   6.69743   0.00000  1       32
siesta:     23.19025   5.35379   0.00000  1       33
siesta:     25.51838   6.69743   0.00000  1       34
siesta:      6.89205   9.38661   0.00000  1       35
siesta:      9.22019  10.73026   0.00000  1       36
siesta:     11.54820   9.38661   0.00000  1       37
siesta:     13.87633  10.73026   0.00000  1       38
siesta:     16.20434   9.38661   0.00000  1       39
siesta:     18.53247  10.73026   0.00000  1       40
siesta:     20.86237   9.38661   0.00000  1       41
siesta:      9.22031  13.41944   0.00000  1       42
siesta:     11.54845  14.76308   0.00000  1       43
siesta:     13.87645  13.41944   0.00000  1       44
siesta:     16.20459  14.76308   0.00000  1       45
siesta:     20.86262  14.76308   0.00000  1       46
siesta:     11.54857  17.45226   0.00000  1       47
siesta:     13.87670  18.79590   0.00000  1       48
siesta:     16.20471  17.45226   0.00000  1       49
siesta:     18.53284  18.79590   0.00000  1       50
siesta:     13.87683  21.48508   0.00000  1       51
siesta:     16.20496  22.82873   0.00000  1       52
siesta:     18.53486  21.48508   0.00000  1       53
siesta:     20.86299  22.82873   0.00000  1       54
siesta:     25.51851   9.38661   0.00000  1       55
siesta:     27.84664  10.73026   0.00000  1       56
siesta:     23.19063  13.41944   0.00000  1       57
siesta:     25.51876  14.76308   0.00000  1       58
siesta:     20.86274  17.45226   0.00000  1       59
siesta:     23.19088  18.79590   0.00000  1       60
siesta:     27.84677  13.41944   0.00000  1       61
siesta:     30.17490  14.76308   0.00000  1       62
siesta:     25.51888  17.45226   0.00000  1       63
siesta:     27.84702  18.79590   0.00000  1       64
siesta:     23.19100  21.48508   0.00000  1       65
siesta:     25.51913  22.82873   0.00000  1       66
siesta:     30.17503  17.45226   0.00000  1       67
siesta:     32.50316  18.79590   0.00000  1       68
siesta:     37.16131  21.48508   0.00000  1       69
siesta:     39.48945  22.82873   0.00000  1       70
siesta:     23.19050  10.73026   0.00000  2       71
siesta:     18.53448  13.41944   0.00000  2       72

siesta: System type = slab      

initatomlists: Number of atoms, orbitals, and projectors:     72   936  1152

siesta: ******************** Simulation parameters ****************************
siesta:
siesta: The following are some of the parameters of the simulation.
siesta: A complete list of the parameters used, including default values,
siesta: can be found in file out.fdf
siesta:
redata: Non-Collinear-spin run           =     F
redata: SpinPolarized (Up/Down) run      =     F
redata: Number of spin components        =     1
redata: Long output                      =     F
redata: Number of Atomic Species         =        2
redata: Charge density info will appear in .RHO file
redata: Write Mulliken Pop.              =     NO
redata: Mesh Cutoff                      =   200.0000  Ry
redata: Net charge of the system         =     0.0000 |e|
redata: Max. number of SCF Iter          =      500
redata: SCF convergence failure will abort job
redata: Performing Pulay mixing using    =    10 iterations
redata: Mix DM in first SCF step ?       =     F
redata: Write Pulay info on disk?        =     F
redata: Discard 1st Pulay DM after  kick =     F
redata: New DM Mixing Weight             =     0.0500
redata: New DM Occupancy tolerance       = 0.000000000001
redata: No kicks to SCF
redata: DM Mixing Weight for Kicks       =     0.5000
redata: DM Tolerance for SCF             =     0.000100
redata: Require Energy convergence for SCF =     F
redata: DM Energy tolerance for SCF      =     0.000100 eV
redata: Require Harris convergence for SCF =     F
redata: DM Harris energy tolerance for SCF =     0.000100 eV
redata: Using Saved Data (generic)   =     F
redata: Use continuation files for DM    =     T
redata: Neglect nonoverlap interactions  =     F
redata: Method of Calculation            =     Diagonalization
redata: Divide and Conquer               =     T
redata: Electronic Temperature           =     0.0019  Ry
redata: Fix the spin of the system       =     F
redata: Dynamics option                  =     Verlet MD run
redata: Initial MD time step             =        1
redata:   Final MD time step             =        1
redata: Length of MD time step           =     1.0000  fs
redata: Initial Temperature of MD run    =     0.0000  K
redata: Perform a MD quench              =     F
redata: ***********************************************************************
Total number of electrons:   286.000000
Total ionic charge:   286.000000

* ProcessorY, Blocksize:    2  24

k-point displ. along   1 input, could be:     0.00    0.50
k-point displ. along   2 input, could be:     0.00    0.50
 Kpoints in:          364 . Kpoints trimmed:          352

siesta: k-grid: Number of k-points =   352
siesta: k-grid: Cutoff (effective) =     5.000 Ang
siesta: k-grid: Supercell and displacements
siesta: k-grid:   26   0   0      0.000
siesta: k-grid:    0  26   0      0.000
siesta: k-grid:    0   0   1      0.000
Naive supercell factors:     2    2    2

superc: Internal auxiliary supercell:     2 x     2 x     2  =       8
superc: Number of atoms, orbitals, and projectors:    576   7488   9216

* Maximum dynamic memory allocated =     6 MB

siesta:                 ==============================
                            Begin MD step =      1
                        ==============================

superc: Internal auxiliary supercell:     2 x     2 x     2  =       8
superc: Number of atoms, orbitals, and projectors:    576   7488   9216

outcell: Unit cell vectors (Ang):
       14.785000    0.000000    0.000000
        7.393000   12.805052    0.000000
        0.000000    0.000000   10.000000

outcell: Cell vector modules (Ang)   :   14.785000   14.786000   10.000000
outcell: Cell angles (23,13,12) (deg):     90.0000     90.0000     60.0000
outcell: Cell volume (Ang**3)        :   1893.2269
New_DM. Step:     1
Initializing Density Matrix...

iodm: Reading Density Matrix from files

InitMesh: MESH =   120 x   120 x    90 =     1296000
InitMesh: Mesh cutoff (required, used) =   200.000   223.865 Ry

* Maximum dynamic memory allocated =   199 MB

stepf: Fermi-Dirac step function

siesta: Program's energy decomposition (eV):
siesta: Ebs     =     -3881.908396
siesta: Eions   =     18146.897649
siesta: Ena     =      3930.199628
siesta: Ekin    =      7737.043118
siesta: Enl     =      -770.337323
siesta: DEna    =      -298.380023
siesta: DUscf   =        27.524608
siesta: DUext   =         0.000000
siesta: Exc     =     -4046.635454
siesta: eta*DQ  =         0.000000
siesta: Emadel  =         0.000000
siesta: Emeta   =         0.000000
siesta: Emolmec =         0.000000
siesta: Ekinion =         0.000000
siesta: Eharris =    -11567.482638
siesta: Etot    =    -11567.483095
siesta: FreeEng =    -11567.483095

siesta: iscf   Eharris(eV)      E_KS(eV)   FreeEng(eV)   dDmax  Ef(eV)
siesta:    1   -11567.4826   -11567.4831   -11567.4831  0.0000 -5.1557
timer: Routine,Calls,Time,% = IterSCF        1    6634.980  99.82
elaps: Routine,Calls,Wall,% = IterSCF        1     830.353  99.82

siesta: E_KS(eV) =           -11567.4826

siesta: E_KS - E_eggbox =    -11567.4826

siesta: Atomic forces (eV/Ang):
----------------------------------------
   Tot    0.193645   -0.284472    0.000000
----------------------------------------
   Max    4.284287
   Res    0.689753    sqrt( Sum f_i^2 / 3N )
----------------------------------------
   Max    4.284287    constrained

Stress-tensor-Voigt (kbar):      -54.17      -53.84       -0.05       -0.90        0.00        0.00
(Free)E + p*V (eV/cell)   -11524.9371
Target enthalpy (eV/cell)   -11567.4985

siesta: Stress tensor (static) (eV/Ang**3):
        -0.033807   -0.000565    0.000000
        -0.000565   -0.033605    0.000000
         0.000000    0.000000   -0.000031

siesta: Pressure (static):         36.01871728  kBar

siesta: Stress tensor (total) (eV/Ang**3):
        -0.033807   -0.000565    0.000000
        -0.000565   -0.033605    0.000000
         0.000000    0.000000   -0.000031

siesta: Pressure (total):         36.01871728  kBar

siesta: Temp_ion =       0.000 K

* Maximum dynamic memory allocated =   212 MB
Computing bands...

siesta: Program's energy decomposition (eV):
siesta: Ebs     =     -3881.908396
siesta: Eions   =     18146.897649
siesta: Ena     =      3930.199628
siesta: Ekin    =      7737.047544
siesta: Enl     =      -770.338713
siesta: DEna    =      -298.382053
siesta: DUscf   =        27.524601
siesta: DUext   =         0.000000
siesta: Exc     =     -4046.635997
siesta: eta*DQ  =         0.000000
siesta: Emadel  =         0.000000
siesta: Emeta   =         0.000000
siesta: Emolmec =         0.000000
siesta: Ekinion =         0.000000
siesta: Eharris =    -11567.482638
siesta: Etot    =    -11567.482637
siesta: FreeEng =    -11567.498533

siesta: Final energy (eV):
siesta:  Band Struct. =   -3881.908396
siesta:       Kinetic =    7737.047544
siesta:       Hartree =   22795.162977
siesta:    Ext. field =       0.000000
siesta:   Exch.-corr. =   -4046.635997
siesta:  Ion-electron =  -52706.988313
siesta:       Ion-ion =   14653.931150
siesta:       Ekinion =       0.000000
siesta:         Total =  -11567.482637

siesta: Atomic forces (eV/Ang):
siesta:      1   -0.090611   -0.161922    0.000000
siesta:      2    0.045389    0.077249    0.000000
siesta:      3    0.019517   -0.011806    0.000000
siesta:      4    0.024418    0.059423    0.000000
siesta:      5    0.052424    0.072370    0.000000
siesta:      6   -0.095791    0.069243    0.000000
siesta:      7    0.187323   -0.064746    0.000000
siesta:      8   -0.061366   -0.134221    0.000000
siesta:      9    0.086308    0.129491    0.000000
siesta:     10    0.079494   -0.003770    0.000000
siesta:     11   -0.076826   -0.149301    0.000000
siesta:     12   -0.100619    0.062381    0.000000
siesta:     13    0.036408    0.013575    0.000000
siesta:     14   -0.032817    0.041711    0.000000
siesta:     15    0.021215   -0.072689    0.000000
siesta:     16   -0.011842    0.004788    0.000000
siesta:     17    0.039268   -0.049850    0.000000
siesta:     18   -0.030861   -0.023024    0.000000
siesta:     19    0.009222   -0.067530    0.000000
siesta:     20    0.025796   -0.065562    0.000000
siesta:     21   -0.180190   -0.096113    0.000000
siesta:     22    0.015650    0.399146    0.000000
siesta:     23    0.146266   -0.161162    0.000000
siesta:     24    0.044555   -0.060407    0.000000
siesta:     25    0.112183   -0.074577    0.000000
siesta:     26   -0.048810   -0.078150    0.000000
siesta:     27    0.047261   -0.001799    0.000000
siesta:     28    0.015489   -0.161544    0.000000
siesta:     29   -0.033833   -0.052091    0.000000
siesta:     30   -0.072196   -0.017850    0.000000
siesta:     31    0.005787   -0.094315    0.000000
siesta:     32   -0.376632    0.211898    0.000000
siesta:     33   -0.110927   -0.489887    0.000000
siesta:     34    0.598362    0.350382    0.000000
siesta:     35    0.067730    0.125655    0.000000
siesta:     36   -0.182651    0.055729    0.000000
siesta:     37    0.346047    0.206639    0.000000
siesta:     38   -0.353464   -0.336733    0.000000
siesta:     39    0.374053   -0.232742    0.000000
siesta:     40    0.015636   -4.284287    0.000000
siesta:     41   -3.737002   -2.165770    0.000000
siesta:     42   -0.073594   -0.004852    0.000000
siesta:     43   -0.079027   -0.138282    0.000000
siesta:     44    0.012424    0.677843    0.000000
siesta:     45   -2.968087    1.720604    0.000000
siesta:     46    3.708016    2.166890    0.000000
siesta:     47    0.100971   -0.070160    0.000000
siesta:     48    0.081167    0.139237    0.000000
siesta:     49   -0.587695   -0.360086    0.000000
siesta:     50    0.156976    0.475137    0.000000
siesta:     51   -0.008268    0.045171    0.000000
siesta:     52   -0.097449    0.147251    0.000000
siesta:     53   -0.053436   -0.404540    0.000000
siesta:     54    0.143040    0.089917    0.000000
siesta:     55    3.009656   -1.746571    0.000000
siesta:     56   -0.001620   -0.689965    0.000000
siesta:     57    0.020448    4.275719    0.000000
siesta:     58   -0.367055    0.225115    0.000000
siesta:     59    0.347497   -0.210930    0.000000
siesta:     60   -0.045243    0.090658    0.000000
siesta:     61    0.358163    0.328177    0.000000
siesta:     62   -0.339764   -0.215565    0.000000
siesta:     63    0.106489    0.000512    0.000000
siesta:     64    0.044382    0.042647    0.000000
siesta:     65    0.019222    0.051406    0.000000
siesta:     66   -0.001501    0.060823    0.000000
siesta:     67   -0.010908    0.153459    0.000000
siesta:     68   -0.040566   -0.007180    0.000000
siesta:     69   -0.082456   -0.080977    0.000000
siesta:     70    0.051475    0.159191    0.000000
siesta:     71    0.272116   -0.138077    0.000000
siesta:     72   -0.301085    0.165125    0.000000
siesta: ----------------------------------------
siesta:    Tot    0.193645   -0.284472    0.000000

siesta: Stress tensor (static) (eV/Ang**3):
siesta:    -0.033807   -0.000565    0.000000
siesta:    -0.000565   -0.033605    0.000000
siesta:     0.000000    0.000000   -0.000031

siesta: Cell volume =       1893.226895 Ang**3

siesta: Pressure (static):
siesta:                Solid            Molecule  Units
siesta:           0.00024485          0.00016438  Ry/Bohr**3
siesta:           0.02248087          0.01509254  eV/Ang**3
siesta:          36.01871728         24.18117630  kBar
(Free)E+ p_basis*V_orbitals  =      -11536.129007
(Free)Eharris+ p_basis*V_orbitals  =      -11536.128550

siesta: Electric dipole (a.u.)  =    0.000000    0.000000    0.000000
siesta: Electric dipole (Debye) =    0.000000    0.000000    0.000000

* Maximum dynamic memory allocated : Node    0 =   212 MB
* Maximum dynamic memory allocated : Node    1 =    77 MB
* Maximum dynamic memory allocated : Node    2 =    79 MB
* Maximum dynamic memory allocated : Node    3 =   201 MB
* Maximum dynamic memory allocated : Node    4 =   212 MB
* Maximum dynamic memory allocated : Node    5 =    76 MB
* Maximum dynamic memory allocated : Node    6 =    80 MB
* Maximum dynamic memory allocated : Node    7 =   196 MB

* Maximum memory occured during matrixMtoO                    

timer: CPU execution times:
timer:  Routine       Calls   Time/call    Tot.time        %
timer:  siesta            1    7639.214    7639.214   100.00
timer:  Setup             1       3.114       3.114     0.04
timer:  bands             3     270.633     811.899    10.63
timer:  writewave         1       0.018       0.018     0.00
timer:  KSV_init          1       0.000       0.000     0.00
timer:  IterMD            1    6815.513    6815.513    89.22
timer:  hsparse           1       0.392       0.392     0.01
timer:  overlap           1       4.608       4.608     0.06
timer:  IterSCF           1    6634.980    6634.980    86.85
timer:  kinefsm           2       2.423       4.845     0.06
timer:  nlefsm            2      19.708      39.416     0.52
timer:  DHSCF             2     132.305     264.611     3.46
timer:  DHSCF1            1       1.000       1.000     0.01
timer:  DHSCF2            1      40.743      40.743     0.53
timer:  REORD            18       0.011       0.189     0.00
timer:  POISON            3       2.269       6.808     0.09
timer:  DHSCF3            2      94.252     188.505     2.47
timer:  rhoofd            2      18.152      36.304     0.48
timer:  cellXC            2       3.518       7.036     0.09
timer:  vmat              2      47.644      95.289     1.25
timer:  MolMec            2       0.000       0.001     0.00
timer:  diagon            1    6460.693    6460.693    84.57
timer:  c-eigval        473       6.716    3176.508    41.58
timer:  c-buildHS       473       0.120      56.855     0.74
timer:  cdiag           825       6.839    5642.542    73.86
timer:  cdiag1          825       0.428     353.253     4.62
timer:  cdiag2          825       1.912    1577.551    20.65
timer:  cdiag3          825       3.967    3272.420    42.84
timer:  cdiag4          825       0.175     144.686     1.89
timer:  c-eigvec        352       7.240    2548.424    33.36
timer:  c-buildD        352       4.388    1544.552    20.22
timer:  DHSCF4            1      34.234      34.234     0.45
timer:  dfscf             1      31.752      31.752     0.42
timer:  overfsm           1       0.400       0.400     0.01
timer:  optical           1       7.597       7.597     0.10
  

elaps: ELAPSED times:
elaps:  Routine       Calls   Time/call    Tot.time        %
elaps:  siesta            1     955.992     955.992   100.00
elaps:  Setup             1       0.388       0.388     0.04
elaps:  bands             3      33.880     101.641    10.63
elaps:  writewave         1       0.002       0.002     0.00
elaps:  KSV_init          1       0.000       0.000     0.00
elaps:  IterMD            1     852.936     852.936    89.22
elaps:  hsparse           1       0.050       0.050     0.01
elaps:  overlap           1       0.523       0.523     0.05
elaps:  IterSCF           1     830.353     830.353    86.86
elaps:  kinefsm           2       0.273       0.547     0.06
elaps:  nlefsm            2       2.383       4.767     0.50
elaps:  DHSCF             2      18.244      36.488     3.82
elaps:  DHSCF1            1       0.126       0.126     0.01
elaps:  DHSCF2            1       5.097       5.097     0.53
elaps:  REORD            18       0.001       0.025     0.00
elaps:  POISON            3       0.285       0.855     0.09
elaps:  DHSCF3            2      11.792      23.584     2.47
elaps:  rhoofd            2       3.883       7.766     0.81
elaps:  cellXC            2       0.439       0.878     0.09
elaps:  vmat              2       5.961      11.923     1.25
elaps:  MolMec            2       0.000       0.000     0.00
elaps:  diagon            1     808.571     808.571    84.58
elaps:  c-eigval        473       0.840     397.456    41.58
elaps:  c-buildHS       473       0.016       7.756     0.81
elaps:  cdiag           825       0.845     697.195    72.93
elaps:  cdiag1          825       0.053      43.699     4.57
elaps:  cdiag2          825       0.239     197.388    20.65
elaps:  cdiag3          825       0.497     410.057    42.89
elaps:  cdiag4          825       0.022      18.376     1.92
elaps:  c-eigvec        352       0.885     311.451    32.58
elaps:  c-buildD        352       0.571     200.824    21.01
elaps:  DHSCF4            1       7.663       7.663     0.80
elaps:  dfscf             1       7.193       7.193     0.75
elaps:  overfsm           1       0.050       0.050     0.01
elaps:  optical           1       0.000       0.000     0.00
  
>> End of run:   8-DEC-2015  14:44:48
