Siesta Version:                                        siesta-3.2-pl-3
Architecture  : x86_64-unknown-linux-gnu--unknown
Compiler flags: mpiifort -g -O2 -fPIC -xSSE4.1 -fp-model source -shared-intel 
PARALLEL version

* Running on    8 nodes in parallel
>> Start of run:  29-NOV-2015   6:50:07

                           ***********************       
                           *  WELCOME TO SIESTA  *       
                           ***********************       

reinit: Reading from standard input
************************** Dump of input data file ****************************
#(1) General system descriptors
SystemName            GRP_doping    # Descriptive name of the system
SystemLabel           GRP_doping    # Short name for naming files
%include STRUCT.fdf
%include KPT.fdf
%include BASIS.fdf
#%include TS.fdf # for transiesta calculation
#(4) DFT, Grid, SCF
XC.functional         GGA           # LDA or GGA (default = LDA)
XC.authors            PBE           # CA (Ceperley-Aldr) = PZ
                                    #    (Perdew-Zunger) - LDA - Default
                                    # PW92 (Perdew-Wang-92) - LDA
                                    # PBE (Perdew-Burke-Ernzerhof) - GGA
MeshCutoff            200.000000    Ry      # Default: 50.0 Ry ~ 0.444 Bohr
                                    #         100.0 Ry ~ 0.314 Bohr
MaxSCFIterations      500           # Default: 50
DM.MixingWeight       0.05          # Default: 0.25
DM.NumberPulay        10            # Default: 0
DM.PulayOnFile        F             # SystemLabel.P1, SystemLabel.P2
DM.Tolerance          1.d-4         # Default: 1.d-4
DM.UseSaveDM          .true.        # because of the bug
SCFMustConverge       .true.
NeglNonOverlapInt     F             # Default: F
#(5) Eigenvalue problem: order-N or diagonalization
SolutionMethod        Diagon        # or Transiesta
ElectronicTemperature 300.0 K       # Default: 300.0 K
#(6) Molecular dynamics and relaxations
#MD.TypeOfRun          CG            # Type of dynamics:
#MD.VariableCell       F
#MD.NumCGsteps         0           # 0 for single-point / 100 for gopt
#MD.MaxCGDispl         0.2 Bohr      # Default: 0.2 Bohr
#MD.MaxForceTol        0.02 eV/Ang   # Default: 0.04 eV/Ang
#MD.MaxStressTol       1.0 GPa       # Default: 1.0 GPa
# Geometry Constraints
#%block GeometryConstraints
#	position from 1 to 44
#%endblock GeometryConstraints
************************** End of input data file *****************************

reinit: -----------------------------------------------------------------------
reinit: System Name: GRP_doping
reinit: -----------------------------------------------------------------------
reinit: System Label: GRP_doping                                                  
reinit: -----------------------------------------------------------------------

initatom: Reading input for the pseudopotentials and atomic orbitals ----------
 Species number:            1  Label: C Atomic number:           6
 Species number:            2  Label: N Atomic number:           7
Ground state valence configuration:   2s02  2p02
Reading pseudopotential information in formatted form from C.psf

Valence configuration for pseudopotential generation:
2s( 2.00) rc: 1.54
2p( 2.00) rc: 1.54
3d( 0.00) rc: 1.54
4f( 0.00) rc: 1.54
Ground state valence configuration:   2s02  2p03
Reading pseudopotential information in formatted form from N.psf

Valence configuration for pseudopotential generation:
2s( 2.00) rc: 1.48
2p( 3.00) rc: 1.48
3d( 0.00) rc: 1.48
4f( 0.00) rc: 1.48
For C, standard SIESTA heuristics set lmxkb to 3
 (one more than the basis l, including polarization orbitals).
Use PS.lmax or PS.KBprojectors blocks to override.
For N, standard SIESTA heuristics set lmxkb to 3
 (one more than the basis l, including polarization orbitals).
Use PS.lmax or PS.KBprojectors blocks to override.

<basis_specs>
===============================================================================
C                    Z=   6    Mass=  12.010        Charge= 0.17977+309
Lmxo=1 Lmxkb= 3    BasisType=split      Semic=F
L=0  Nsemic=0  Cnfigmx=2
          n=1  nzeta=2  polorb=0
            splnorm:   0.15000    
               vcte:    0.0000    
               rinn:    0.0000    
                rcs:    0.0000      0.0000    
            lambdas:    1.0000      1.0000    
L=1  Nsemic=0  Cnfigmx=2
          n=1  nzeta=2  polorb=1
            splnorm:   0.15000    
               vcte:    0.0000    
               rinn:    0.0000    
                rcs:    0.0000      0.0000    
            lambdas:    1.0000      1.0000    
-------------------------------------------------------------------------------
L=0  Nkbl=1  erefs: 0.17977+309
L=1  Nkbl=1  erefs: 0.17977+309
L=2  Nkbl=1  erefs: 0.17977+309
L=3  Nkbl=1  erefs: 0.17977+309
===============================================================================
</basis_specs>

atom: Called for C                     (Z =   6)

read_vps: Pseudopotential generation method:
read_vps: ATM3      Troullier-Martins                       
Total valence charge:    4.00000

read_vps: Pseudopotential includes a core correction:
read_vps: Pseudo-core for xc-correction

xc_check: Exchange-correlation functional:
xc_check: GGA Perdew, Burke & Ernzerhof 1996
V l=0 = -2*Zval/r beyond r=  1.5227
V l=1 = -2*Zval/r beyond r=  1.5227
V l=2 = -2*Zval/r beyond r=  1.5227
V l=3 = -2*Zval/r beyond r=  1.5038
All V_l potentials equal beyond r=  1.5227
This should be close to max(r_c) in ps generation
All pots = -2*Zval/r beyond r=  1.5227

VLOCAL1: 99.0% of the norm of Vloc inside     18.722 Ry
VLOCAL1: 99.9% of the norm of Vloc inside     42.668 Ry
atom: Maximum radius for 4*pi*r*r*local-pseudopot. charge    1.83678
atom: Maximum radius for r*vlocal+2*Zval:    1.58088
GHOST: No ghost state for L =  0
GHOST: No ghost state for L =  1
GHOST: No ghost state for L =  2
GHOST: No ghost state for L =  3

KBgen: Kleinman-Bylander projectors: 
   l= 0   rc=  1.704034   el= -1.009801   Ekb=  5.335044   kbcos=  0.316824
   l= 1   rc=  1.704034   el= -0.388707   Ekb= -3.785862   kbcos= -0.366464
   l= 2   rc=  1.791422   el=  0.001971   Ekb= -0.970471   kbcos= -0.009212
   l= 3   rc=  1.859892   el=  0.003065   Ekb= -0.399525   kbcos= -0.001223

KBgen: Total number of  Kleinman-Bylander projectors:   16
atom: -------------------------------------------------------------------------

atom: SANKEY-TYPE ORBITALS:
atom: Selected multiple-zeta basis: split     

SPLIT: Orbitals with angular momentum L= 0

SPLIT: Basis orbitals for state 2s

SPLIT: PAO cut-off radius determined from an
SPLIT: energy shift=  0.007350 Ry

   izeta = 1
                 lambda =    1.000000
                     rc =    4.632753
                 energy =   -1.002270
                kinetic =    0.855760
    potential(screened) =   -1.858031
       potential(ionic) =   -5.417575

   izeta = 2
                 rmatch =    3.431921
              splitnorm =    0.150000
                 energy =   -0.867111
                kinetic =    1.300804
    potential(screened) =   -2.167915
       potential(ionic) =   -5.962684

SPLIT: Orbitals with angular momentum L= 1

SPLIT: Basis orbitals for state 2p

SPLIT: PAO cut-off radius determined from an
SPLIT: energy shift=  0.007350 Ry

   izeta = 1
                 lambda =    1.000000
                     rc =    5.658549
                 energy =   -0.381140
                kinetic =    2.399701
    potential(screened) =   -2.780841
       potential(ionic) =   -6.206085

   izeta = 2
                 rmatch =    3.653288
              splitnorm =    0.150000
                 energy =   -0.249149
                kinetic =    3.542762
    potential(screened) =   -3.791911
       potential(ionic) =   -7.581078

POLgen: Perturbative polarization orbital with L=  2

POLgen: Polarization orbital for state 2p

   izeta = 1
                     rc =    5.658549
                 energy =    1.109913
                kinetic =    2.304789
    potential(screened) =   -1.194876
       potential(ionic) =   -4.013592
atom: Total number of Sankey-type orbitals: 13

atm_pop: Valence configuration (for local Pseudopot. screening):
 2s( 2.00)                                                            
 2p( 2.00)                                                            
Vna: chval, zval:    4.00000   4.00000

Vna:  Cut-off radius for the neutral-atom potential:   5.658549
comcore: Pseudo-core radius Rcore=  1.791422

atom: _________________________________________________________________________

<basis_specs>
===============================================================================
N                    Z=   7    Mass=  14.010        Charge= 0.17977+309
Lmxo=1 Lmxkb= 3    BasisType=split      Semic=F
L=0  Nsemic=0  Cnfigmx=2
          n=1  nzeta=2  polorb=0
            splnorm:   0.15000    
               vcte:    0.0000    
               rinn:    0.0000    
                rcs:    0.0000      0.0000    
            lambdas:    1.0000      1.0000    
L=1  Nsemic=0  Cnfigmx=2
          n=1  nzeta=2  polorb=1
            splnorm:   0.15000    
               vcte:    0.0000    
               rinn:    0.0000    
                rcs:    0.0000      0.0000    
            lambdas:    1.0000      1.0000    
-------------------------------------------------------------------------------
L=0  Nkbl=1  erefs: 0.17977+309
L=1  Nkbl=1  erefs: 0.17977+309
L=2  Nkbl=1  erefs: 0.17977+309
L=3  Nkbl=1  erefs: 0.17977+309
===============================================================================
</basis_specs>

atom: Called for N                     (Z =   7)

read_vps: Pseudopotential generation method:
read_vps: ATM3      Troullier-Martins                       
Total valence charge:    5.00000

read_vps: Pseudopotential includes a core correction:
read_vps: Pseudo-core for xc-correction

xc_check: Exchange-correlation functional:
xc_check: GGA Perdew, Burke & Ernzerhof 1996
V l=0 = -2*Zval/r beyond r=  1.4606
V l=1 = -2*Zval/r beyond r=  1.4606
V l=2 = -2*Zval/r beyond r=  1.4606
V l=3 = -2*Zval/r beyond r=  1.4606
All V_l potentials equal beyond r=  1.4606
This should be close to max(r_c) in ps generation
All pots = -2*Zval/r beyond r=  1.4606

VLOCAL1: 99.0% of the norm of Vloc inside     20.347 Ry
VLOCAL1: 99.9% of the norm of Vloc inside     46.372 Ry
atom: Maximum radius for 4*pi*r*r*local-pseudopot. charge    1.76189
atom: Maximum radius for r*vlocal+2*Zval:    1.53550
GHOST: No ghost state for L =  0
GHOST: No ghost state for L =  1
GHOST: No ghost state for L =  2
GHOST: No ghost state for L =  3

KBgen: Kleinman-Bylander projectors: 
   l= 0   rc=  1.634559   el= -1.363963   Ekb=  5.296955   kbcos=  0.335621
   l= 1   rc=  1.614250   el= -0.521451   Ekb= -5.259161   kbcos= -0.433408
   l= 2   rc=  1.718383   el=  0.001991   Ekb= -1.271464   kbcos= -0.007566
   l= 3   rc=  1.761893   el=  0.003093   Ekb= -0.494769   kbcos= -0.001015

KBgen: Total number of  Kleinman-Bylander projectors:   16
atom: -------------------------------------------------------------------------

atom: SANKEY-TYPE ORBITALS:
atom: Selected multiple-zeta basis: split     

SPLIT: Orbitals with angular momentum L= 0

SPLIT: Basis orbitals for state 2s

SPLIT: PAO cut-off radius determined from an
SPLIT: energy shift=  0.007350 Ry

   izeta = 1
                 lambda =    1.000000
                     rc =    4.071465
                 energy =   -1.356470
                kinetic =    1.176977
    potential(screened) =   -2.533447
       potential(ionic) =   -8.057990

   izeta = 2
                 rmatch =    2.905100
              splitnorm =    0.150000
                 energy =   -1.158343
                kinetic =    1.813009
    potential(screened) =   -2.971352
       potential(ionic) =   -8.901931

SPLIT: Orbitals with angular momentum L= 1

SPLIT: Basis orbitals for state 2p

SPLIT: PAO cut-off radius determined from an
SPLIT: energy shift=  0.007350 Ry

   izeta = 1
                 lambda =    1.000000
                     rc =    4.972977
                 energy =   -0.513884
                kinetic =    3.441732
    potential(screened) =   -3.955616
       potential(ionic) =   -9.287901

   izeta = 2
                 rmatch =    3.054066
              splitnorm =    0.150000
                 energy =   -0.318226
                kinetic =    5.125348
    potential(screened) =   -5.443573
       potential(ionic) =  -11.380999

POLgen: Perturbative polarization orbital with L=  2

POLgen: Polarization orbital for state 2p

   izeta = 1
                     rc =    4.972977
                 energy =    1.607437
                kinetic =    3.268125
    potential(screened) =   -1.660688
       potential(ionic) =   -5.973652
atom: Total number of Sankey-type orbitals: 13

atm_pop: Valence configuration (for local Pseudopot. screening):
 2s( 2.00)                                                            
 2p( 3.00)                                                            
Vna: chval, zval:    5.00000   5.00000

Vna:  Cut-off radius for the neutral-atom potential:   4.972977
comcore: Pseudo-core radius Rcore=  1.554824

atom: _________________________________________________________________________

prinput: Basis input ----------------------------------------------------------

PAO.BasisType split     

%block ChemicalSpeciesLabel
    1    6 C                       # Species index, atomic number, species label
    2    7 N                       # Species index, atomic number, species label
%endblock ChemicalSpeciesLabel

%block PAO.Basis                 # Define Basis set
C                     2                    # Species label, number of l-shells
 n=2   0   2                         # n, l, Nzeta 
   4.633      3.432   
   1.000      1.000   
 n=2   1   2 P   1                   # n, l, Nzeta, Polarization, NzetaPol
   5.659      3.653   
   1.000      1.000   
N                     2                    # Species label, number of l-shells
 n=2   0   2                         # n, l, Nzeta 
   4.071      2.905   
   1.000      1.000   
 n=2   1   2 P   1                   # n, l, Nzeta, Polarization, NzetaPol
   4.973      3.054   
   1.000      1.000   
%endblock PAO.Basis

prinput: ----------------------------------------------------------------------

coor:   Atomic-coordinates input format  =     Cartesian coordinates
coor:                                          (in Angstroms)

siesta: Atomic coordinates (Bohr) and species
siesta:      2.23554   1.32097   0.00000  1        1
siesta:     32.50328  21.48508   0.00000  1        2
siesta:     34.83116  17.45226   0.00000  1        3
siesta:     37.15930  18.79590   0.00000  1        4
siesta:     32.50291  13.41944   0.00000  1        5
siesta:     34.83104  14.76308   0.00000  1        6
siesta:     30.17465   9.38661   0.00000  1        7
siesta:     32.50278  10.73026   0.00000  1        8
siesta:     27.84639   5.35379   0.00000  1        9
siesta:     30.17453   6.69743   0.00000  1       10
siesta:     27.84714  21.48508   0.00000  1       11
siesta:     30.17527  22.82873   0.00000  1       12
siesta:      6.89168   1.32097   0.00000  1       13
siesta:      9.21981   2.66461   0.00000  1       14
siesta:     13.87595   2.66461   0.00000  1       15
siesta:     16.20396   1.32097   0.00000  1       16
siesta:     18.53210   2.66461   0.00000  1       17
siesta:     23.19013   2.66461   0.00000  1       18
siesta:     25.51813   1.32097   0.00000  1       19
siesta:     27.84627   2.66461   0.00000  1       20
siesta:      4.56380   5.35379   0.00000  1       21
siesta:      6.89193   6.69743   0.00000  1       22
siesta:      9.21994   5.35379   0.00000  1       23
siesta:     11.54807   6.69743   0.00000  1       24
siesta:     13.87608   5.35379   0.00000  1       25
siesta:     16.20421   6.69743   0.00000  1       26
siesta:     18.53411   5.35379   0.00000  1       27
siesta:     20.86224   6.69743   0.00000  1       28
siesta:     23.19025   5.35379   0.00000  1       29
siesta:     25.51838   6.69743   0.00000  1       30
siesta:      9.22019  10.73026   0.00000  1       31
siesta:     11.54820   9.38661   0.00000  1       32
siesta:     13.87633  10.73026   0.00000  1       33
siesta:     18.53247  10.73026   0.00000  1       34
siesta:     20.86237   9.38661   0.00000  1       35
siesta:     23.19050  10.73026   0.00000  1       36
siesta:      9.22031  13.41944   0.00000  1       37
siesta:     11.54845  14.76308   0.00000  1       38
siesta:     13.87645  13.41944   0.00000  1       39
siesta:     16.20459  14.76308   0.00000  1       40
siesta:     18.53448  13.41944   0.00000  1       41
siesta:     20.86262  14.76308   0.00000  1       42
siesta:     13.87670  18.79590   0.00000  1       43
siesta:     16.20471  17.45226   0.00000  1       44
siesta:     18.53284  18.79590   0.00000  1       45
siesta:     13.87683  21.48508   0.00000  1       46
siesta:     16.20496  22.82873   0.00000  1       47
siesta:     18.53486  21.48508   0.00000  1       48
siesta:     20.86299  22.82873   0.00000  1       49
siesta:     27.84664  10.73026   0.00000  1       50
siesta:     23.19063  13.41944   0.00000  1       51
siesta:     25.51876  14.76308   0.00000  1       52
siesta:     23.19088  18.79590   0.00000  1       53
siesta:     27.84677  13.41944   0.00000  1       54
siesta:     30.17490  14.76308   0.00000  1       55
siesta:     25.51888  17.45226   0.00000  1       56
siesta:     27.84702  18.79590   0.00000  1       57
siesta:     23.19100  21.48508   0.00000  1       58
siesta:     25.51913  22.82873   0.00000  1       59
siesta:     30.17503  17.45226   0.00000  1       60
siesta:     32.50316  18.79590   0.00000  1       61
siesta:     37.16131  21.48508   0.00000  1       62
siesta:     39.48945  22.82873   0.00000  1       63
siesta:      4.56367   2.66461   0.00000  2       64
siesta:     34.83141  22.82873   0.00000  2       65
siesta:     11.54782   1.32097   0.00000  2       66
siesta:     20.86199   1.32097   0.00000  2       67
siesta:      6.89205   9.38661   0.00000  2       68
siesta:     16.20434   9.38661   0.00000  2       69
siesta:     11.54857  17.45226   0.00000  2       70
siesta:     25.51851   9.38661   0.00000  2       71
siesta:     20.86274  17.45226   0.00000  2       72

siesta: System type = slab      

initatomlists: Number of atoms, orbitals, and projectors:     72   936  1152

siesta: ******************** Simulation parameters ****************************
siesta:
siesta: The following are some of the parameters of the simulation.
siesta: A complete list of the parameters used, including default values,
siesta: can be found in file out.fdf
siesta:
redata: Non-Collinear-spin run           =     F
redata: SpinPolarized (Up/Down) run      =     F
redata: Number of spin components        =     1
redata: Long output                      =     F
redata: Number of Atomic Species         =        2
redata: Charge density info will appear in .RHO file
redata: Write Mulliken Pop.              =     NO
redata: Mesh Cutoff                      =   200.0000  Ry
redata: Net charge of the system         =     0.0000 |e|
redata: Max. number of SCF Iter          =      500
redata: SCF convergence failure will abort job
redata: Performing Pulay mixing using    =    10 iterations
redata: Mix DM in first SCF step ?       =     F
redata: Write Pulay info on disk?        =     F
redata: Discard 1st Pulay DM after  kick =     F
redata: New DM Mixing Weight             =     0.0500
redata: New DM Occupancy tolerance       = 0.000000000001
redata: No kicks to SCF
redata: DM Mixing Weight for Kicks       =     0.5000
redata: DM Tolerance for SCF             =     0.000100
redata: Require Energy convergence for SCF =     F
redata: DM Energy tolerance for SCF      =     0.000100 eV
redata: Require Harris convergence for SCF =     F
redata: DM Harris energy tolerance for SCF =     0.000100 eV
redata: Using Saved Data (generic)   =     F
redata: Use continuation files for DM    =     T
redata: Neglect nonoverlap interactions  =     F
redata: Method of Calculation            =     Diagonalization
redata: Divide and Conquer               =     T
redata: Electronic Temperature           =     0.0019  Ry
redata: Fix the spin of the system       =     F
redata: Dynamics option                  =     Verlet MD run
redata: Initial MD time step             =        1
redata:   Final MD time step             =        1
redata: Length of MD time step           =     1.0000  fs
redata: Initial Temperature of MD run    =     0.0000  K
redata: Perform a MD quench              =     F
redata: ***********************************************************************
Total number of electrons:   297.000000
Total ionic charge:   297.000000

* ProcessorY, Blocksize:    2  24

k-point displ. along   1 input, could be:     0.00    0.50
k-point displ. along   2 input, could be:     0.00    0.50
 Kpoints in:          364 . Kpoints trimmed:          352

siesta: k-grid: Number of k-points =   352
siesta: k-grid: Cutoff (effective) =     5.000 Ang
siesta: k-grid: Supercell and displacements
siesta: k-grid:   26   0   0      0.000
siesta: k-grid:    0  26   0      0.000
siesta: k-grid:    0   0   1      0.000
Naive supercell factors:     2    2    2

superc: Internal auxiliary supercell:     2 x     2 x     2  =       8
superc: Number of atoms, orbitals, and projectors:    576   7488   9216

* Maximum dynamic memory allocated =     6 MB

siesta:                 ==============================
                            Begin MD step =      1
                        ==============================

superc: Internal auxiliary supercell:     2 x     2 x     2  =       8
superc: Number of atoms, orbitals, and projectors:    576   7488   9216

outcell: Unit cell vectors (Ang):
       14.785000    0.000000    0.000000
        7.393000   12.805052    0.000000
        0.000000    0.000000   10.000000

outcell: Cell vector modules (Ang)   :   14.785000   14.786000   10.000000
outcell: Cell angles (23,13,12) (deg):     90.0000     90.0000     60.0000
outcell: Cell volume (Ang**3)        :   1893.2269
New_DM. Step:     1
Initializing Density Matrix...

iodm: Reading Density Matrix from files
 Read DM has different structure. Fixing...

InitMesh: MESH =   120 x   120 x    90 =     1296000
InitMesh: Mesh cutoff (required, used) =   200.000   223.865 Ry

* Maximum dynamic memory allocated =   187 MB

stepf: Fermi-Dirac step function

siesta: Program's energy decomposition (eV):
siesta: Ebs     =     -4398.310132
siesta: Eions   =     19849.732669
siesta: Ena     =      4064.292361
siesta: Ekin    =      8469.653661
siesta: Enl     =      -987.276696
siesta: DEna    =      -305.712869
siesta: DUscf   =       184.234234
siesta: DUext   =         0.000000
siesta: Exc     =     -4275.176445
siesta: eta*DQ  =         0.000000
siesta: Emadel  =         0.000000
siesta: Emeta   =         0.000000
siesta: Emolmec =         0.000000
siesta: Ekinion =         0.000000
siesta: Eharris =    -13223.133856
siesta: Etot    =    -12699.718422
siesta: FreeEng =    -12699.718422

siesta: iscf   Eharris(eV)      E_KS(eV)   FreeEng(eV)   dDmax  Ef(eV)
siesta:    1   -13223.1339   -12699.7184   -12699.7184  2.1230 -3.0226
timer: Routine,Calls,Time,% = IterSCF        1    6612.330  99.82
elaps: Routine,Calls,Wall,% = IterSCF        1     827.512  99.82
siesta:    2   -28658.0415    -9893.4878    -9893.5165130.3324-20.4012
siesta:    3   -12977.2970   -12717.2488   -12717.2847  0.8095 -2.9729
siesta:    4   -12906.2492   -12727.5468   -12727.5790  0.6934 -3.0537
siesta:    5   -12782.0819   -12741.4606   -12741.4945  0.7083 -2.9643
siesta:    6   -12757.5773   -12742.0902   -12742.1226  0.6822 -2.9774
siesta:    7   -12742.7494   -12738.2351   -12738.2696  0.4501 -3.0224
siesta:    8   -12740.8878   -12738.3719   -12738.4087  0.4893 -3.1335
siesta:    9   -12742.3393   -12737.6982   -12737.7331  0.2852 -3.3985
siesta:   10   -12741.5210   -12737.4719   -12737.5069  0.0965 -3.5102
siesta:   11   -12739.8571   -12737.8213   -12737.8502  0.1414 -3.5645
siesta:   12   -12739.2356   -12738.0035   -12738.0320  0.0964 -3.5488
siesta:   13   -12739.2055   -12738.0441   -12738.0788  0.0898 -3.5275
siesta:   14   -12739.1380   -12738.1351   -12738.1710  0.0589 -3.4838
siesta:   15   -12739.1310   -12738.2401   -12738.2754  0.0266 -3.4507
siesta:   16   -12739.1073   -12738.4632   -12738.4988  0.0108 -3.4379
siesta:   17   -12739.0933   -12738.7645   -12738.7995  0.0063 -3.4326
siesta:   18   -12739.0837   -12738.8399   -12738.8747  0.0060 -3.4277
siesta:   19   -12739.0824   -12738.8480   -12738.8828  0.0053 -3.4247
siesta:   20   -12739.0821   -12738.9415   -12738.9765  0.0021 -3.4243
siesta:   21   -12739.0819   -12738.9866   -12739.0216  0.0017 -3.4253
siesta:   22   -12739.0818   -12739.0401   -12739.0751  0.0015 -3.4268
siesta:   23   -12739.0816   -12739.0623   -12739.0973  0.0004 -3.4284
siesta:   24   -12739.0816   -12739.0650   -12739.1000  0.0004 -3.4285
siesta:   25   -12739.0816   -12739.0691   -12739.1041  0.0003 -3.4285
siesta:   26   -12739.0816   -12739.0733   -12739.1083  0.0003 -3.4284
siesta:   27   -12739.0816   -12739.0749   -12739.1099  0.0003 -3.4283
siesta:   28   -12739.0816   -12739.0772   -12739.1122  0.0002 -3.4283
siesta:   29   -12739.0816   -12739.0794   -12739.1144  0.0001 -3.4283

siesta: E_KS(eV) =           -12739.0799

siesta: E_KS - E_eggbox =    -12739.0799

siesta: Atomic forces (eV/Ang):
----------------------------------------
   Tot    0.231860   -0.253882    0.000000
----------------------------------------
   Max    1.139193
   Res    0.329903    sqrt( Sum f_i^2 / 3N )
----------------------------------------
   Max    1.139193    constrained

Stress-tensor-Voigt (kbar):       -0.47        0.24        0.14       -0.73        0.00        0.00
(Free)E + p*V (eV/cell)   -12739.0777
Target enthalpy (eV/cell)   -12739.1149

siesta: Stress tensor (static) (eV/Ang**3):
        -0.000296   -0.000456    0.000000
        -0.000456    0.000147    0.000000
         0.000000    0.000000    0.000090

siesta: Pressure (static):          0.03147770  kBar

siesta: Stress tensor (total) (eV/Ang**3):
        -0.000296   -0.000456    0.000000
        -0.000456    0.000147    0.000000
         0.000000    0.000000    0.000090

siesta: Pressure (total):          0.03147770  kBar

siesta: Temp_ion =       0.000 K

* Maximum dynamic memory allocated =   203 MB

siesta: Program's energy decomposition (eV):
siesta: Ebs     =     -4185.046540
siesta: Eions   =     19849.732669
siesta: Ena     =      4064.292361
siesta: Ekin    =      8580.306000
siesta: Enl     =     -1058.635272
siesta: DEna    =      -247.616054
siesta: DUscf   =        22.707713
siesta: DUext   =         0.000000
siesta: Exc     =     -4250.401942
siesta: eta*DQ  =         0.000000
siesta: Emadel  =         0.000000
siesta: Emeta   =         0.000000
siesta: Emolmec =         0.000000
siesta: Ekinion =         0.000000
siesta: Eharris =    -12739.081608
siesta: Etot    =    -12739.079862
siesta: FreeEng =    -12739.114870

siesta: Final energy (eV):
siesta:  Band Struct. =   -4185.046540
siesta:       Kinetic =    8580.306000
siesta:       Hartree =   24802.817895
siesta:    Ext. field =       0.000000
siesta:   Exch.-corr. =   -4250.401942
siesta:  Ion-electron =  -57582.169358
siesta:       Ion-ion =   15710.367542
siesta:       Ekinion =       0.000000
siesta:         Total =  -12739.079862

siesta: Atomic forces (eV/Ang):
siesta:      1    0.269561    0.255423    0.000000
siesta:      2   -0.398847    1.015324    0.000000
siesta:      3    0.142078   -1.139193    0.000000
siesta:      4    0.607085    0.636604    0.000000
siesta:      5    0.455050   -0.391280    0.000000
siesta:      6   -0.393422    0.856467    0.000000
siesta:      7    0.043096    0.221345    0.000000
siesta:      8    0.397634   -0.121239    0.000000
siesta:      9   -0.219086    0.947586    0.000000
siesta:     10    0.266835   -1.088304    0.000000
siesta:     11    0.047423    0.476508    0.000000
siesta:     12    0.928425   -0.984644    0.000000
siesta:     13    0.179940   -0.181245    0.000000
siesta:     14   -0.239498   -0.307982    0.000000
siesta:     15   -0.096626   -0.605020    0.000000
siesta:     16   -0.041394    0.780063    0.000000
siesta:     17   -0.167813   -0.819748    0.000000
siesta:     18    0.038184   -0.592577    0.000000
siesta:     19   -0.513011   -0.186622    0.000000
siesta:     20    0.433646   -0.072995    0.000000
siesta:     21   -0.063706    0.172552    0.000000
siesta:     22   -0.359472    0.008614    0.000000
siesta:     23    0.664405    0.374958    0.000000
siesta:     24   -0.361657   -0.338767    0.000000
siesta:     25   -0.069509    0.426305    0.000000
siesta:     26   -0.129172   -0.087944    0.000000
siesta:     27    0.287734    0.199061    0.000000
siesta:     28    0.006099    0.104554    0.000000
siesta:     29   -0.463213   -0.106247    0.000000
siesta:     30    0.461723    0.261904    0.000000
siesta:     31   -0.452706    0.030218    0.000000
siesta:     32    0.266773   -0.100470    0.000000
siesta:     33   -0.056285   -0.178778    0.000000
siesta:     34   -0.066775    0.011203    0.000000
siesta:     35   -0.183033   -0.408569    0.000000
siesta:     36    0.434117    0.096775    0.000000
siesta:     37    0.259693   -0.181657    0.000000
siesta:     38   -0.343812    0.264820    0.000000
siesta:     39    0.445589    0.121667    0.000000
siesta:     40   -0.015773    0.033778    0.000000
siesta:     41   -0.363352   -0.067040    0.000000
siesta:     42    0.285649    0.387713    0.000000
siesta:     43   -0.249917   -0.135900    0.000000
siesta:     44   -0.112376   -0.395131    0.000000
siesta:     45    0.564865    0.224935    0.000000
siesta:     46   -0.824477   -0.302827    0.000000
siesta:     47    0.318028    0.348692    0.000000
siesta:     48    0.538877   -0.745824    0.000000
siesta:     49   -0.718110    0.785424    0.000000
siesta:     50   -0.234393   -0.462362    0.000000
siesta:     51   -0.199923   -0.122596    0.000000
siesta:     52    0.494639    0.295210    0.000000
siesta:     53   -0.486464   -0.025624    0.000000
siesta:     54   -0.591853   -0.088682    0.000000
siesta:     55    0.051875   -0.265548    0.000000
siesta:     56   -0.423539   -0.451905    0.000000
siesta:     57   -0.228044    0.103454    0.000000
siesta:     58    0.218894   -0.046450    0.000000
siesta:     59    0.090704    0.332247    0.000000
siesta:     60   -0.167411    0.148907    0.000000
siesta:     61    0.551927    0.565415    0.000000
siesta:     62   -0.274984   -0.086653    0.000000
siesta:     63   -0.127907    0.099065    0.000000
siesta:     64    0.128280    0.136367    0.000000
siesta:     65    0.214126   -0.888599    0.000000
siesta:     66    0.061740    0.102084    0.000000
siesta:     67   -0.085256    0.920249    0.000000
siesta:     68    0.005264   -0.041082    0.000000
siesta:     69    0.099657    0.050759    0.000000
siesta:     70   -0.020034    0.142752    0.000000
siesta:     71   -0.183717    0.010508    0.000000
siesta:     72   -0.101189   -0.183891    0.000000
siesta: ----------------------------------------
siesta:    Tot    0.231860   -0.253882    0.000000

siesta: Stress tensor (static) (eV/Ang**3):
siesta:    -0.000296   -0.000456    0.000000
siesta:    -0.000456    0.000147    0.000000
siesta:     0.000000    0.000000    0.000090

siesta: Cell volume =       1893.226895 Ang**3

siesta: Pressure (static):
siesta:                Solid            Molecule  Units
siesta:           0.00000021         -0.00001790  Ry/Bohr**3
siesta:           0.00001965         -0.00164348  eV/Ang**3
siesta:           0.03147770         -2.63317208  kBar
(Free)E+ p_basis*V_orbitals  =      -12709.663924
(Free)Eharris+ p_basis*V_orbitals  =      -12709.666165

siesta: Electric dipole (a.u.)  =    0.000000    0.000000    0.000000
siesta: Electric dipole (Debye) =    0.000000    0.000000    0.000000

* Maximum dynamic memory allocated : Node    0 =   203 MB
* Maximum dynamic memory allocated : Node    1 =    74 MB
* Maximum dynamic memory allocated : Node    2 =    76 MB
* Maximum dynamic memory allocated : Node    3 =   192 MB
* Maximum dynamic memory allocated : Node    4 =   203 MB
* Maximum dynamic memory allocated : Node    5 =    74 MB
* Maximum dynamic memory allocated : Node    6 =    76 MB
* Maximum dynamic memory allocated : Node    7 =   188 MB

* Maximum memory occured during matrixMtoO                    

timer: CPU execution times:
timer:  Routine       Calls   Time/call    Tot.time        %
timer:  siesta            1  190315.661  190315.661   100.00
timer:  Setup             1       3.062       3.062     0.00
timer:  bands             1       0.010       0.010     0.00
timer:  writewave         1       0.020       0.020     0.00
timer:  KSV_init          1       0.000       0.000     0.00
timer:  IterMD            1  190304.387  190304.387    99.99
timer:  hsparse           1       0.258       0.258     0.00
timer:  overlap           1       6.345       6.345     0.00
timer:  IterSCF          29    6556.492  190138.268    99.91
timer:  kinefsm           2       3.268       6.535     0.00
timer:  nlefsm            2      18.845      37.691     0.02
timer:  DHSCF            30      87.009    2610.262     1.37
timer:  DHSCF1            1       0.759       0.759     0.00
timer:  DHSCF2            1      32.846      32.846     0.02
timer:  REORD           242       0.010       2.440     0.00
timer:  POISON           31       2.247      69.656     0.04
timer:  DHSCF3           30      84.805    2544.152     1.34
timer:  rhoofd           30      16.155     484.656     0.25
timer:  cellXC           30       3.489     104.657     0.05
timer:  vmat             30      43.092    1292.775     0.68
timer:  MolMec            2       0.000       0.000     0.00
timer:  diagon           29    6468.179  187577.183    98.56
timer:  c-eigval      10208       6.677   68157.250    35.81
timer:  c-buildHS     10208       0.117    1196.448     0.63
timer:  cdiag         20416       6.861  140079.139    73.60
timer:  cdiag1        20416       0.428    8740.620     4.59
timer:  cdiag2        20416       1.903   38845.853    20.41
timer:  cdiag3        20416       3.954   80733.810    42.42
timer:  cdiag4        20416       0.204    4172.105     2.19
timer:  c-eigvec      10208       7.235   73851.468    38.80
timer:  c-buildD      10208       4.456   45482.976    23.90
timer:  DHSCF4            1      30.930      30.930     0.02
timer:  dfscf             1      29.057      29.057     0.02
timer:  overfsm           1       0.379       0.379     0.00
timer:  optical           1       7.182       7.182     0.00
  

elaps: ELAPSED times:
elaps:  Routine       Calls   Time/call    Tot.time        %
elaps:  siesta            1   23816.297   23816.297   100.00
elaps:  Setup             1       0.382       0.382     0.00
elaps:  bands             1       0.001       0.001     0.00
elaps:  writewave         1       0.002       0.002     0.00
elaps:  KSV_init          1       0.000       0.000     0.00
elaps:  IterMD            1   23814.887   23814.887    99.99
elaps:  hsparse           1       0.032       0.032     0.00
elaps:  overlap           1       0.524       0.524     0.00
elaps:  IterSCF          29     820.486   23794.106    99.91
elaps:  kinefsm           2       0.275       0.549     0.00
elaps:  nlefsm            2       2.482       4.964     0.02
elaps:  DHSCF            30      10.991     329.732     1.38
elaps:  DHSCF1            1       0.099       0.099     0.00
elaps:  DHSCF2            1       4.104       4.104     0.02
elaps:  REORD           242       0.001       0.335     0.00
elaps:  POISON           31       0.281       8.697     0.04
elaps:  DHSCF3           30      10.610     318.293     1.34
elaps:  rhoofd           30       3.532     105.946     0.44
elaps:  cellXC           30       0.436      13.069     0.05
elaps:  vmat             30       5.391     161.725     0.68
elaps:  MolMec            2       0.000       0.000     0.00
elaps:  diagon           29     809.461   23474.357    98.56
elaps:  c-eigval      10208       0.835    8527.446    35.81
elaps:  c-buildHS     10208       0.016     164.653     0.69
elaps:  cdiag         20416       0.845   17260.508    72.47
elaps:  cdiag1        20416       0.053    1075.111     4.51
elaps:  cdiag2        20416       0.238    4860.577    20.41
elaps:  cdiag3        20416       0.495   10114.700    42.47
elaps:  cdiag4        20416       0.026     534.800     2.25
elaps:  c-eigvec      10208       0.883    9011.921    37.84
elaps:  c-buildD      10208       0.580    5922.803    24.87
elaps:  DHSCF4            1       7.021       7.021     0.03
elaps:  dfscf             1       6.629       6.629     0.03
elaps:  overfsm           1       0.048       0.048     0.00
elaps:  optical           1       0.000       0.000     0.00
  
>> End of run:  29-NOV-2015  13:27:03
