Siesta Version:                                        siesta-3.2-pl-3
Architecture  : x86_64-unknown-linux-gnu--unknown
Compiler flags: mpiifort -g -O2 -fPIC -xSSE4.1 -fp-model source -shared-intel 
PARALLEL version

* Running on    8 nodes in parallel
>> Start of run:   3-DEC-2015  22:26:17

                           ***********************       
                           *  WELCOME TO SIESTA  *       
                           ***********************       

reinit: Reading from standard input
************************** Dump of input data file ****************************
#(1) General system descriptors
SystemName            GRP_doping    # Descriptive name of the system
SystemLabel           GRP_doping    # Short name for naming files
%include STRUCT.fdf
%include KPT.fdf
%include BASIS.fdf
#%include TS.fdf # for transiesta calculation
#(4) DFT, Grid, SCF
XC.functional         GGA           # LDA or GGA (default = LDA)
XC.authors            PBE           # CA (Ceperley-Aldr) = PZ
                                    #    (Perdew-Zunger) - LDA - Default
                                    # PW92 (Perdew-Wang-92) - LDA
                                    # PBE (Perdew-Burke-Ernzerhof) - GGA
MeshCutoff            200.000000    Ry      # Default: 50.0 Ry ~ 0.444 Bohr
                                    #         100.0 Ry ~ 0.314 Bohr
MaxSCFIterations      500           # Default: 50
DM.MixingWeight       0.05          # Default: 0.25
DM.NumberPulay        10            # Default: 0
DM.PulayOnFile        F             # SystemLabel.P1, SystemLabel.P2
DM.Tolerance          1.d-4         # Default: 1.d-4
DM.UseSaveDM          .true.        # because of the bug
SCFMustConverge       .true.
NeglNonOverlapInt     F             # Default: F
#(5) Eigenvalue problem: order-N or diagonalization
SolutionMethod        Diagon        # or Transiesta
ElectronicTemperature 300.0 K       # Default: 300.0 K
#(6) Molecular dynamics and relaxations
#MD.TypeOfRun          CG            # Type of dynamics:
#MD.VariableCell       F
#MD.NumCGsteps         0           # 0 for single-point / 100 for gopt
#MD.MaxCGDispl         0.2 Bohr      # Default: 0.2 Bohr
#MD.MaxForceTol        0.02 eV/Ang   # Default: 0.04 eV/Ang
#MD.MaxStressTol       1.0 GPa       # Default: 1.0 GPa
# Geometry Constraints
#%block GeometryConstraints
#	position from 1 to 44
#%endblock GeometryConstraints
************************** End of input data file *****************************

reinit: -----------------------------------------------------------------------
reinit: System Name: GRP_doping
reinit: -----------------------------------------------------------------------
reinit: System Label: GRP_doping                                                  
reinit: -----------------------------------------------------------------------

initatom: Reading input for the pseudopotentials and atomic orbitals ----------
 Species number:            1  Label: C Atomic number:           6
 Species number:            2  Label: B Atomic number:           5
Ground state valence configuration:   2s02  2p02
Reading pseudopotential information in formatted form from C.psf

Valence configuration for pseudopotential generation:
2s( 2.00) rc: 1.54
2p( 2.00) rc: 1.54
3d( 0.00) rc: 1.54
4f( 0.00) rc: 1.54
Ground state valence configuration:   2s02  2p01
Reading pseudopotential information in formatted form from B.psf

Valence configuration for pseudopotential generation:
2s( 2.00) rc: 1.74
2p( 1.00) rc: 1.74
3d( 0.00) rc: 1.74
4f( 0.00) rc: 1.74
For C, standard SIESTA heuristics set lmxkb to 3
 (one more than the basis l, including polarization orbitals).
Use PS.lmax or PS.KBprojectors blocks to override.
For B, standard SIESTA heuristics set lmxkb to 3
 (one more than the basis l, including polarization orbitals).
Use PS.lmax or PS.KBprojectors blocks to override.

<basis_specs>
===============================================================================
C                    Z=   6    Mass=  12.010        Charge= 0.17977+309
Lmxo=1 Lmxkb= 3    BasisType=split      Semic=F
L=0  Nsemic=0  Cnfigmx=2
          n=1  nzeta=2  polorb=0
            splnorm:   0.15000    
               vcte:    0.0000    
               rinn:    0.0000    
                rcs:    0.0000      0.0000    
            lambdas:    1.0000      1.0000    
L=1  Nsemic=0  Cnfigmx=2
          n=1  nzeta=2  polorb=1
            splnorm:   0.15000    
               vcte:    0.0000    
               rinn:    0.0000    
                rcs:    0.0000      0.0000    
            lambdas:    1.0000      1.0000    
-------------------------------------------------------------------------------
L=0  Nkbl=1  erefs: 0.17977+309
L=1  Nkbl=1  erefs: 0.17977+309
L=2  Nkbl=1  erefs: 0.17977+309
L=3  Nkbl=1  erefs: 0.17977+309
===============================================================================
</basis_specs>

atom: Called for C                     (Z =   6)

read_vps: Pseudopotential generation method:
read_vps: ATM3      Troullier-Martins                       
Total valence charge:    4.00000

read_vps: Pseudopotential includes a core correction:
read_vps: Pseudo-core for xc-correction

xc_check: Exchange-correlation functional:
xc_check: GGA Perdew, Burke & Ernzerhof 1996
V l=0 = -2*Zval/r beyond r=  1.5227
V l=1 = -2*Zval/r beyond r=  1.5227
V l=2 = -2*Zval/r beyond r=  1.5227
V l=3 = -2*Zval/r beyond r=  1.5038
All V_l potentials equal beyond r=  1.5227
This should be close to max(r_c) in ps generation
All pots = -2*Zval/r beyond r=  1.5227

VLOCAL1: 99.0% of the norm of Vloc inside     18.722 Ry
VLOCAL1: 99.9% of the norm of Vloc inside     42.668 Ry
atom: Maximum radius for 4*pi*r*r*local-pseudopot. charge    1.83678
atom: Maximum radius for r*vlocal+2*Zval:    1.58088
GHOST: No ghost state for L =  0
GHOST: No ghost state for L =  1
GHOST: No ghost state for L =  2
GHOST: No ghost state for L =  3

KBgen: Kleinman-Bylander projectors: 
   l= 0   rc=  1.704034   el= -1.009801   Ekb=  5.335044   kbcos=  0.316824
   l= 1   rc=  1.704034   el= -0.388707   Ekb= -3.785862   kbcos= -0.366464
   l= 2   rc=  1.791422   el=  0.001971   Ekb= -0.970471   kbcos= -0.009212
   l= 3   rc=  1.859892   el=  0.003065   Ekb= -0.399525   kbcos= -0.001223

KBgen: Total number of  Kleinman-Bylander projectors:   16
atom: -------------------------------------------------------------------------

atom: SANKEY-TYPE ORBITALS:
atom: Selected multiple-zeta basis: split     

SPLIT: Orbitals with angular momentum L= 0

SPLIT: Basis orbitals for state 2s

SPLIT: PAO cut-off radius determined from an
SPLIT: energy shift=  0.007350 Ry

   izeta = 1
                 lambda =    1.000000
                     rc =    4.632753
                 energy =   -1.002270
                kinetic =    0.855760
    potential(screened) =   -1.858031
       potential(ionic) =   -5.417575

   izeta = 2
                 rmatch =    3.431921
              splitnorm =    0.150000
                 energy =   -0.867111
                kinetic =    1.300804
    potential(screened) =   -2.167915
       potential(ionic) =   -5.962684

SPLIT: Orbitals with angular momentum L= 1

SPLIT: Basis orbitals for state 2p

SPLIT: PAO cut-off radius determined from an
SPLIT: energy shift=  0.007350 Ry

   izeta = 1
                 lambda =    1.000000
                     rc =    5.658549
                 energy =   -0.381140
                kinetic =    2.399701
    potential(screened) =   -2.780841
       potential(ionic) =   -6.206085

   izeta = 2
                 rmatch =    3.653288
              splitnorm =    0.150000
                 energy =   -0.249149
                kinetic =    3.542762
    potential(screened) =   -3.791911
       potential(ionic) =   -7.581078

POLgen: Perturbative polarization orbital with L=  2

POLgen: Polarization orbital for state 2p

   izeta = 1
                     rc =    5.658549
                 energy =    1.109913
                kinetic =    2.304789
    potential(screened) =   -1.194876
       potential(ionic) =   -4.013592
atom: Total number of Sankey-type orbitals: 13

atm_pop: Valence configuration (for local Pseudopot. screening):
 2s( 2.00)                                                            
 2p( 2.00)                                                            
Vna: chval, zval:    4.00000   4.00000

Vna:  Cut-off radius for the neutral-atom potential:   5.658549
comcore: Pseudo-core radius Rcore=  1.791422

atom: _________________________________________________________________________

<basis_specs>
===============================================================================
B                    Z=   5    Mass=  10.810        Charge= 0.17977+309
Lmxo=1 Lmxkb= 3    BasisType=split      Semic=F
L=0  Nsemic=0  Cnfigmx=2
          n=1  nzeta=2  polorb=0
            splnorm:   0.15000    
               vcte:    0.0000    
               rinn:    0.0000    
                rcs:    0.0000      0.0000    
            lambdas:    1.0000      1.0000    
L=1  Nsemic=0  Cnfigmx=2
          n=1  nzeta=2  polorb=1
            splnorm:   0.15000    
               vcte:    0.0000    
               rinn:    0.0000    
                rcs:    0.0000      0.0000    
            lambdas:    1.0000      1.0000    
-------------------------------------------------------------------------------
L=0  Nkbl=1  erefs: 0.17977+309
L=1  Nkbl=1  erefs: 0.17977+309
L=2  Nkbl=1  erefs: 0.17977+309
L=3  Nkbl=1  erefs: 0.17977+309
===============================================================================
</basis_specs>

atom: Called for B                     (Z =   5)

read_vps: Pseudopotential generation method:
read_vps: ATM3      Troullier-Martins                       
Total valence charge:    3.00000

read_vps: Pseudopotential includes a core correction:
read_vps: Pseudo-core for xc-correction

xc_check: Exchange-correlation functional:
xc_check: GGA Perdew, Burke & Ernzerhof 1996
V l=0 = -2*Zval/r beyond r=  1.7165
V l=1 = -2*Zval/r beyond r=  1.7165
V l=2 = -2*Zval/r beyond r=  1.7165
V l=3 = -2*Zval/r beyond r=  1.6951
All V_l potentials equal beyond r=  1.7165
This should be close to max(r_c) in ps generation
All pots = -2*Zval/r beyond r=  1.7165

VLOCAL1: 99.0% of the norm of Vloc inside     14.733 Ry
VLOCAL1: 99.9% of the norm of Vloc inside     33.577 Ry
atom: Maximum radius for 4*pi*r*r*local-pseudopot. charge    2.04484
atom: Maximum radius for r*vlocal+2*Zval:    1.75994
GHOST: No ghost state for L =  0
GHOST: No ghost state for L =  1
GHOST: No ghost state for L =  2
GHOST: No ghost state for L =  3

KBgen: Kleinman-Bylander projectors: 
   l= 0   rc=  1.897051   el= -0.693730   Ekb=  4.595746   kbcos=  0.286105
   l= 1   rc=  1.920920   el= -0.265236   Ekb= -2.350715   kbcos= -0.315747
   l= 2   rc=  2.044840   el=  0.002055   Ekb= -0.690767   kbcos= -0.013822
   l= 3   rc=  2.149707   el=  0.003188   Ekb= -0.315358   kbcos= -0.002055

KBgen: Total number of  Kleinman-Bylander projectors:   16
atom: -------------------------------------------------------------------------

atom: SANKEY-TYPE ORBITALS:
atom: Selected multiple-zeta basis: split     

SPLIT: Orbitals with angular momentum L= 0

SPLIT: Basis orbitals for state 2s

SPLIT: PAO cut-off radius determined from an
SPLIT: energy shift=  0.007350 Ry

   izeta = 1
                 lambda =    1.000000
                     rc =    5.422032
                 energy =   -0.686029
                kinetic =    0.576707
    potential(screened) =   -1.262736
       potential(ionic) =   -3.271094

   izeta = 2
                 rmatch =    4.222573
              splitnorm =    0.150000
                 energy =   -0.602132
                kinetic =    0.858975
    potential(screened) =   -1.461107
       potential(ionic) =   -3.582536

SPLIT: Orbitals with angular momentum L= 1

SPLIT: Basis orbitals for state 2p

SPLIT: PAO cut-off radius determined from an
SPLIT: energy shift=  0.007350 Ry

   izeta = 1
                 lambda =    1.000000
                     rc =    6.790259
                 energy =   -0.258578
                kinetic =    1.481412
    potential(screened) =   -1.739989
       potential(ionic) =   -3.657461

   izeta = 2
                 rmatch =    4.608740
              splitnorm =    0.150000
                 energy =   -0.173757
                kinetic =    2.186690
    potential(screened) =   -2.360447
       potential(ionic) =   -4.464260

POLgen: Perturbative polarization orbital with L=  2

POLgen: Polarization orbital for state 2p

   izeta = 1
                     rc =    6.790259
                 energy =    0.684082
                kinetic =    1.471481
    potential(screened) =   -0.787399
       potential(ionic) =   -2.406985
atom: Total number of Sankey-type orbitals: 13

atm_pop: Valence configuration (for local Pseudopot. screening):
 2s( 2.00)                                                            
 2p( 1.00)                                                            
Vna: chval, zval:    3.00000   3.00000

Vna:  Cut-off radius for the neutral-atom potential:   6.790259
comcore: Pseudo-core radius Rcore=  2.122997

atom: _________________________________________________________________________

prinput: Basis input ----------------------------------------------------------

PAO.BasisType split     

%block ChemicalSpeciesLabel
    1    6 C                       # Species index, atomic number, species label
    2    5 B                       # Species index, atomic number, species label
%endblock ChemicalSpeciesLabel

%block PAO.Basis                 # Define Basis set
C                     2                    # Species label, number of l-shells
 n=2   0   2                         # n, l, Nzeta 
   4.633      3.432   
   1.000      1.000   
 n=2   1   2 P   1                   # n, l, Nzeta, Polarization, NzetaPol
   5.659      3.653   
   1.000      1.000   
B                     2                    # Species label, number of l-shells
 n=2   0   2                         # n, l, Nzeta 
   5.422      4.223   
   1.000      1.000   
 n=2   1   2 P   1                   # n, l, Nzeta, Polarization, NzetaPol
   6.790      4.609   
   1.000      1.000   
%endblock PAO.Basis

prinput: ----------------------------------------------------------------------

coor:   Atomic-coordinates input format  =     Cartesian coordinates
coor:                                          (in Angstroms)

siesta: Atomic coordinates (Bohr) and species
siesta:      2.23554   1.32097   0.00000  1        1
siesta:      4.56367   2.66461   0.00000  1        2
siesta:     32.50328  21.48508   0.00000  1        3
siesta:     34.83141  22.82873   0.00000  1        4
siesta:     34.83116  17.45226   0.00000  1        5
siesta:     37.15930  18.79590   0.00000  1        6
siesta:     32.50291  13.41944   0.00000  1        7
siesta:     34.83104  14.76308   0.00000  1        8
siesta:     30.17465   9.38661   0.00000  1        9
siesta:     32.50278  10.73026   0.00000  1       10
siesta:     27.84639   5.35379   0.00000  1       11
siesta:     30.17453   6.69743   0.00000  1       12
siesta:     27.84714  21.48508   0.00000  1       13
siesta:     30.17527  22.82873   0.00000  1       14
siesta:      6.89168   1.32097   0.00000  1       15
siesta:      9.21981   2.66461   0.00000  1       16
siesta:     11.54782   1.32097   0.00000  1       17
siesta:     13.87595   2.66461   0.00000  1       18
siesta:     16.20396   1.32097   0.00000  1       19
siesta:     18.53210   2.66461   0.00000  1       20
siesta:     20.86199   1.32097   0.00000  1       21
siesta:     23.19013   2.66461   0.00000  1       22
siesta:     25.51813   1.32097   0.00000  1       23
siesta:     27.84627   2.66461   0.00000  1       24
siesta:      4.56380   5.35379   0.00000  1       25
siesta:      6.89193   6.69743   0.00000  1       26
siesta:      9.21994   5.35379   0.00000  1       27
siesta:     11.54807   6.69743   0.00000  1       28
siesta:     13.87608   5.35379   0.00000  1       29
siesta:      6.89205   9.38661   0.00000  1       30
siesta:      9.22019  10.73026   0.00000  1       31
siesta:     11.54820   9.38661   0.00000  1       32
siesta:     18.53247  10.73026   0.00000  1       33
siesta:     20.86237   9.38661   0.00000  1       34
siesta:     23.19050  10.73026   0.00000  1       35
siesta:      9.22031  13.41944   0.00000  1       36
siesta:     11.54845  14.76308   0.00000  1       37
siesta:     18.53448  13.41944   0.00000  1       38
siesta:     20.86262  14.76308   0.00000  1       39
siesta:     11.54857  17.45226   0.00000  1       40
siesta:     13.87670  18.79590   0.00000  1       41
siesta:     13.87683  21.48508   0.00000  1       42
siesta:     16.20496  22.82873   0.00000  1       43
siesta:     18.53486  21.48508   0.00000  1       44
siesta:     20.86299  22.82873   0.00000  1       45
siesta:     23.19063  13.41944   0.00000  1       46
siesta:     30.17490  14.76308   0.00000  1       47
siesta:     27.84702  18.79590   0.00000  1       48
siesta:     23.19100  21.48508   0.00000  1       49
siesta:     25.51913  22.82873   0.00000  1       50
siesta:     30.17503  17.45226   0.00000  1       51
siesta:     32.50316  18.79590   0.00000  1       52
siesta:     37.16131  21.48508   0.00000  1       53
siesta:     39.48945  22.82873   0.00000  1       54
siesta:     16.20421   6.69743   0.00000  2       55
siesta:     18.53411   5.35379   0.00000  2       56
siesta:     20.86224   6.69743   0.00000  2       57
siesta:     23.19025   5.35379   0.00000  2       58
siesta:     25.51838   6.69743   0.00000  2       59
siesta:     13.87633  10.73026   0.00000  2       60
siesta:     16.20434   9.38661   0.00000  2       61
siesta:     13.87645  13.41944   0.00000  2       62
siesta:     16.20459  14.76308   0.00000  2       63
siesta:     16.20471  17.45226   0.00000  2       64
siesta:     18.53284  18.79590   0.00000  2       65
siesta:     25.51851   9.38661   0.00000  2       66
siesta:     27.84664  10.73026   0.00000  2       67
siesta:     25.51876  14.76308   0.00000  2       68
siesta:     20.86274  17.45226   0.00000  2       69
siesta:     23.19088  18.79590   0.00000  2       70
siesta:     27.84677  13.41944   0.00000  2       71
siesta:     25.51888  17.45226   0.00000  2       72

siesta: System type = slab      

initatomlists: Number of atoms, orbitals, and projectors:     72   936  1152

siesta: ******************** Simulation parameters ****************************
siesta:
siesta: The following are some of the parameters of the simulation.
siesta: A complete list of the parameters used, including default values,
siesta: can be found in file out.fdf
siesta:
redata: Non-Collinear-spin run           =     F
redata: SpinPolarized (Up/Down) run      =     F
redata: Number of spin components        =     1
redata: Long output                      =     F
redata: Number of Atomic Species         =        2
redata: Charge density info will appear in .RHO file
redata: Write Mulliken Pop.              =     NO
redata: Mesh Cutoff                      =   200.0000  Ry
redata: Net charge of the system         =     0.0000 |e|
redata: Max. number of SCF Iter          =      500
redata: SCF convergence failure will abort job
redata: Performing Pulay mixing using    =    10 iterations
redata: Mix DM in first SCF step ?       =     F
redata: Write Pulay info on disk?        =     F
redata: Discard 1st Pulay DM after  kick =     F
redata: New DM Mixing Weight             =     0.0500
redata: New DM Occupancy tolerance       = 0.000000000001
redata: No kicks to SCF
redata: DM Mixing Weight for Kicks       =     0.5000
redata: DM Tolerance for SCF             =     0.000100
redata: Require Energy convergence for SCF =     F
redata: DM Energy tolerance for SCF      =     0.000100 eV
redata: Require Harris convergence for SCF =     F
redata: DM Harris energy tolerance for SCF =     0.000100 eV
redata: Using Saved Data (generic)   =     F
redata: Use continuation files for DM    =     T
redata: Neglect nonoverlap interactions  =     F
redata: Method of Calculation            =     Diagonalization
redata: Divide and Conquer               =     T
redata: Electronic Temperature           =     0.0019  Ry
redata: Fix the spin of the system       =     F
redata: Dynamics option                  =     Verlet MD run
redata: Initial MD time step             =        1
redata:   Final MD time step             =        1
redata: Length of MD time step           =     1.0000  fs
redata: Initial Temperature of MD run    =     0.0000  K
redata: Perform a MD quench              =     F
redata: ***********************************************************************
Total number of electrons:   270.000000
Total ionic charge:   270.000000

* ProcessorY, Blocksize:    2  24

k-point displ. along   1 input, could be:     0.00    0.50
k-point displ. along   2 input, could be:     0.00    0.50
 Kpoints in:          364 . Kpoints trimmed:          352

siesta: k-grid: Number of k-points =   352
siesta: k-grid: Cutoff (effective) =     5.000 Ang
siesta: k-grid: Supercell and displacements
siesta: k-grid:   26   0   0      0.000
siesta: k-grid:    0  26   0      0.000
siesta: k-grid:    0   0   1      0.000
Naive supercell factors:     2    2    2

superc: Internal auxiliary supercell:     2 x     2 x     2  =       8
superc: Number of atoms, orbitals, and projectors:    576   7488   9216

* Maximum dynamic memory allocated =     6 MB

siesta:                 ==============================
                            Begin MD step =      1
                        ==============================

superc: Internal auxiliary supercell:     2 x     2 x     2  =       8
superc: Number of atoms, orbitals, and projectors:    576   7488   9216

outcell: Unit cell vectors (Ang):
       14.785000    0.000000    0.000000
        7.393000   12.805052    0.000000
        0.000000    0.000000   10.000000

outcell: Cell vector modules (Ang)   :   14.785000   14.786000   10.000000
outcell: Cell angles (23,13,12) (deg):     90.0000     90.0000     60.0000
outcell: Cell volume (Ang**3)        :   1893.2269
New_DM. Step:     1
Initializing Density Matrix...

InitMesh: MESH =   120 x   120 x    90 =     1296000
InitMesh: Mesh cutoff (required, used) =   200.000   223.865 Ry

* Maximum dynamic memory allocated =   218 MB

stepf: Fermi-Dirac step function

siesta: Program's energy decomposition (eV):
siesta: Ebs     =     -4308.188483
siesta: Eions   =     16097.990269
siesta: Ena     =      3565.140555
siesta: Ekin    =      5428.893495
siesta: Enl     =       376.523804
siesta: DEna    =        -0.000007
siesta: DUscf   =         0.000000
siesta: DUext   =         0.000000
siesta: Exc     =     -3984.029546
siesta: eta*DQ  =         0.000000
siesta: Emadel  =         0.000000
siesta: Emeta   =         0.000000
siesta: Emolmec =         0.000000
siesta: Ekinion =         0.000000
siesta: Eharris =    -10628.015337
siesta: Etot    =    -10711.461967
siesta: FreeEng =    -10711.461967

siesta: iscf   Eharris(eV)      E_KS(eV)   FreeEng(eV)   dDmax  Ef(eV)
siesta:    1   -10628.0153   -10711.4620   -10711.4620  1.8464 -8.6354
timer: Routine,Calls,Time,% = IterSCF        1    8348.557  99.86
elaps: Routine,Calls,Wall,% = IterSCF        1    1045.293  99.86
siesta:    2   -11445.0676   -10475.4724   -10475.5059  1.7359 -1.7828
siesta:    3   -10617.4766   -10622.6427   -10622.7128  0.9815 -5.0712
siesta:    4   -10605.5649   -10624.8046   -10624.8053  0.9703 -5.0791
siesta:    5   -10587.9046   -10624.3648   -10624.3651  0.8425 -6.3573
siesta:    6   -10586.8793   -10610.9683   -10611.0185  0.6879 -6.1196
siesta:    7   -10586.4000   -10580.8790   -10580.9505  0.2685 -5.7606
siesta:    8   -10586.9182   -10578.4053   -10578.4558  0.1711 -5.7423
siesta:    9   -10586.9485   -10581.2694   -10581.3083  0.1807 -5.8073
siesta:   10   -10585.8369   -10586.4108   -10586.4455  0.1350 -5.8208
siesta:   11   -10585.7860   -10586.3149   -10586.3892  0.1156 -5.8394
siesta:   12   -10585.6976   -10585.9149   -10585.9909  0.0834 -5.8433
siesta:   13   -10585.7001   -10585.6807   -10585.7575  0.0483 -5.8503
siesta:   14   -10585.6906   -10585.6451   -10585.7222  0.0479 -5.8370
siesta:   15   -10585.6850   -10585.6286   -10585.7056  0.0062 -5.8527
siesta:   16   -10585.6837   -10585.6489   -10585.7272  0.0017 -5.8496
siesta:   17   -10585.6818   -10585.6769   -10585.7550  0.0037 -5.8584
siesta:   18   -10585.6818   -10585.6810   -10585.7585  0.0017 -5.8569
siesta:   19   -10585.6818   -10585.6820   -10585.7594  0.0008 -5.8561
siesta:   20   -10585.6818   -10585.6884   -10585.7659  0.0004 -5.8548
siesta:   21   -10585.6818   -10585.7054   -10585.7829  0.0001 -5.8549
siesta:   22   -10585.6818   -10585.7077   -10585.7852  0.0001 -5.8550
siesta:   23   -10585.6818   -10585.7048   -10585.7823  0.0001 -5.8551
siesta:   24   -10585.6818   -10585.6935   -10585.7710  0.0001 -5.8550

siesta: E_KS(eV) =           -10585.6892

siesta: E_KS - E_eggbox =    -10585.6892

siesta: Atomic forces (eV/Ang):
----------------------------------------
   Tot    0.233170   -0.110897    0.000000
----------------------------------------
   Max    6.520962
   Res    2.035157    sqrt( Sum f_i^2 / 3N )
----------------------------------------
   Max    6.520962    constrained

Stress-tensor-Voigt (kbar):     -179.92     -178.34       -0.46       -0.80        0.00        0.00
(Free)E + p*V (eV/cell)   -10444.4694
Target enthalpy (eV/cell)   -10585.7667

siesta: Stress tensor (static) (eV/Ang**3):
        -0.112298   -0.000501    0.000000
        -0.000501   -0.111312    0.000000
         0.000000    0.000000   -0.000289

siesta: Pressure (static):        119.57663405  kBar

siesta: Stress tensor (total) (eV/Ang**3):
        -0.112298   -0.000501    0.000000
        -0.000501   -0.111312    0.000000
         0.000000    0.000000   -0.000289

siesta: Pressure (total):        119.57663405  kBar

siesta: Temp_ion =       0.000 K

* Maximum dynamic memory allocated =   233 MB

siesta: Program's energy decomposition (eV):
siesta: Ebs     =     -3561.348831
siesta: Eions   =     16097.990269
siesta: Ena     =      3565.140555
siesta: Ekin    =      6918.032267
siesta: Enl     =      -575.344680
siesta: DEna    =      -340.079793
siesta: DUscf   =        34.905575
siesta: DUext   =         0.000000
siesta: Exc     =     -4090.352884
siesta: eta*DQ  =         0.000000
siesta: Emadel  =         0.000000
siesta: Emeta   =         0.000000
siesta: Emolmec =         0.000000
siesta: Ekinion =         0.000000
siesta: Eharris =    -10585.681752
siesta: Etot    =    -10585.689230
siesta: FreeEng =    -10585.766720

siesta: Final energy (eV):
siesta:  Band Struct. =   -3561.348831
siesta:       Kinetic =    6918.032267
siesta:       Hartree =   20312.256512
siesta:    Ext. field =       0.000000
siesta:   Exch.-corr. =   -4090.352884
siesta:  Ion-electron =  -46952.008619
siesta:       Ion-ion =   13226.383494
siesta:       Ekinion =       0.000000
siesta:         Total =  -10585.689230

siesta: Atomic forces (eV/Ang):
siesta:      1   -0.344448   -0.218157    0.000000
siesta:      2    0.054056    0.031476    0.000000
siesta:      3    0.071654   -0.040230    0.000000
siesta:      4    0.035087   -0.046425    0.000000
siesta:      5    0.006008    0.062886    0.000000
siesta:      6   -0.033642    0.033769    0.000000
siesta:      7    0.041792    1.091630    0.000000
siesta:      8    0.014374   -0.381819    0.000000
siesta:      9    3.337382   -0.500717    0.000000
siesta:     10    0.051755   -1.108677    0.000000
siesta:     11    2.097689   -2.649717    0.000000
siesta:     12    0.575964   -0.328845    0.000000
siesta:     13    0.980712   -0.525697    0.000000
siesta:     14   -0.334633    0.215408    0.000000
siesta:     15    0.009969    0.037367    0.000000
siesta:     16   -0.064974    0.029179    0.000000
siesta:     17    0.340966   -0.220232    0.000000
siesta:     18   -0.977618    0.519319    0.000000
siesta:     19    0.952097   -0.616830    0.000000
siesta:     20   -1.217305   -3.123456    0.000000
siesta:     21   -0.027572   -0.664801    0.000000
siesta:     22    1.236980   -3.125860    0.000000
siesta:     23   -0.927816   -0.614780    0.000000
siesta:     24    0.988288    0.515022    0.000000
siesta:     25    0.052709   -0.038174    0.000000
siesta:     26   -0.008735   -0.066312    0.000000
siesta:     27   -0.050109   -0.043064    0.000000
siesta:     28   -0.552523   -0.316357    0.000000
siesta:     29   -2.085701   -2.656264    0.000000
siesta:     30   -0.005157    0.373485    0.000000
siesta:     31   -0.036672   -1.099947    0.000000
siesta:     32   -3.328297   -0.505581    0.000000
siesta:     33    2.944768    1.676853    0.000000
siesta:     34   -0.011041    3.346068    0.000000
siesta:     35   -2.911223    1.685974    0.000000
siesta:     36   -0.042530    1.098334    0.000000
siesta:     37   -3.329342    0.495296    0.000000
siesta:     38    2.874329   -1.669036    0.000000
siesta:     39   -0.000346   -3.343482    0.000000
siesta:     40   -0.556355    0.309795    0.000000
siesta:     41   -2.093637    2.644260    0.000000
siesta:     42   -0.946946   -0.531302    0.000000
siesta:     43    0.972405    0.604767    0.000000
siesta:     44   -1.255466    3.124978    0.000000
siesta:     45   -0.012032    0.668191    0.000000
siesta:     46   -2.895391   -1.694741    0.000000
siesta:     47    3.336346    0.492615    0.000000
siesta:     48    2.092787    2.649011    0.000000
siesta:     49    1.251656    3.114680    0.000000
siesta:     50   -0.944505    0.611574    0.000000
siesta:     51    0.555730    0.311410    0.000000
siesta:     52    0.058305    0.035863    0.000000
siesta:     53   -0.097481   -0.035004    0.000000
siesta:     54    0.305421    0.217570    0.000000
siesta:     55   -5.752318   -1.286626    0.000000
siesta:     56    1.760975   -5.600785    0.000000
siesta:     57   -0.021085    6.520962    0.000000
siesta:     58   -1.759473   -5.622080    0.000000
siesta:     59    5.762276   -1.275078    0.000000
siesta:     60   -3.989337   -4.357617    0.000000
siesta:     61    5.652906    3.262982    0.000000
siesta:     62   -3.973994    4.366484    0.000000
siesta:     63    5.659576   -3.279754    0.000000
siesta:     64   -5.740238    1.275433    0.000000
siesta:     65    1.795197    5.620968    0.000000
siesta:     66   -5.619645    3.255173    0.000000
siesta:     67    3.983118   -4.363828    0.000000
siesta:     68   -5.651039   -3.250744    0.000000
siesta:     69   -0.018484   -6.485682    0.000000
siesta:     70   -1.789013    5.642476    0.000000
siesta:     71    3.999714    4.362796    0.000000
siesta:     72    5.786303    1.272752    0.000000
siesta: ----------------------------------------
siesta:    Tot    0.233170   -0.110897    0.000000

siesta: Stress tensor (static) (eV/Ang**3):
siesta:    -0.112298   -0.000501    0.000000
siesta:    -0.000501   -0.111312    0.000000
siesta:     0.000000    0.000000   -0.000289

siesta: Cell volume =       1893.226895 Ang**3

siesta: Pressure (static):
siesta:                Solid            Molecule  Units
siesta:           0.00081285          0.00019709  Ry/Bohr**3
siesta:           0.07463306          0.01809613  eV/Ang**3
siesta:         119.57663405         28.99351240  kBar
(Free)E+ p_basis*V_orbitals  =      -10549.341942
(Free)Eharris+ p_basis*V_orbitals  =      -10549.330213

siesta: Electric dipole (a.u.)  =    0.000000    0.000000    0.000000
siesta: Electric dipole (Debye) =    0.000000    0.000000    0.000000

* Maximum dynamic memory allocated : Node    0 =   233 MB
* Maximum dynamic memory allocated : Node    1 =    84 MB
* Maximum dynamic memory allocated : Node    2 =    87 MB
* Maximum dynamic memory allocated : Node    3 =   221 MB
* Maximum dynamic memory allocated : Node    4 =   233 MB
* Maximum dynamic memory allocated : Node    5 =    84 MB
* Maximum dynamic memory allocated : Node    6 =    88 MB
* Maximum dynamic memory allocated : Node    7 =   216 MB

* Maximum memory occured during matrixMtoO                    

timer: CPU execution times:
timer:  Routine       Calls   Time/call    Tot.time        %
timer:  siesta            1  198806.660  198806.660   100.00
timer:  Setup             1       3.128       3.128     0.00
timer:  bands             1       0.008       0.008     0.00
timer:  writewave         1       0.016       0.016     0.00
timer:  KSV_init          1       0.002       0.002     0.00
timer:  IterMD            1  198795.365  198795.365    99.99
timer:  hsparse           1       0.404       0.404     0.00
timer:  overlap           1       7.769       7.769     0.00
timer:  IterSCF          24    8274.516  198588.393    99.89
timer:  kinefsm           2       4.018       8.037     0.00
timer:  nlefsm            2      20.829      41.657     0.02
timer:  DHSCF            25     113.256    2831.410     1.42
timer:  DHSCF1            1       1.068       1.068     0.00
timer:  DHSCF2            1      44.714      44.714     0.02
timer:  REORD           202       0.014       2.855     0.00
timer:  POISON           26       3.681      95.704     0.05
timer:  DHSCF3           25     109.756    2743.909     1.38
timer:  rhoofd           25      21.668     541.710     0.27
timer:  cellXC           25       3.560      89.009     0.04
timer:  vmat             25      55.849    1396.237     0.70
timer:  MolMec            2       0.000       0.000     0.00
timer:  diagon           24    8159.826  195835.821    98.51
timer:  c-eigval       8448       7.235   61123.463    30.75
timer:  c-buildHS      8448       0.217    1836.531     0.92
timer:  cdiag         16896       7.438  125680.446    63.22
timer:  cdiag1        16896       0.465    7859.259     3.95
timer:  cdiag2        16896       1.985   33531.941    16.87
timer:  cdiag3        16896       4.168   70422.844    35.42
timer:  cdiag4        16896       0.272    4602.687     2.32
timer:  c-eigvec       8448       7.940   67074.495    33.74
timer:  c-buildD       8448       7.995   67539.570    33.97
timer:  DHSCF4            1      39.514      39.514     0.02
timer:  dfscf             1      36.869      36.869     0.02
timer:  overfsm           1       0.463       0.463     0.00
timer:  optical           1       7.145       7.145     0.00
  

elaps: ELAPSED times:
elaps:  Routine       Calls   Time/call    Tot.time        %
elaps:  siesta            1   24891.166   24891.166   100.00
elaps:  Setup             1       0.390       0.390     0.00
elaps:  bands             1       0.001       0.001     0.00
elaps:  writewave         1       0.002       0.002     0.00
elaps:  KSV_init          1       0.000       0.000     0.00
elaps:  IterMD            1   24889.754   24889.754    99.99
elaps:  hsparse           1       0.049       0.049     0.00
elaps:  overlap           1       0.986       0.986     0.00
elaps:  IterSCF          24    1035.994   24863.859    99.89
elaps:  kinefsm           2       0.511       1.022     0.00
elaps:  nlefsm            2       2.545       5.090     0.02
elaps:  DHSCF            25      14.325     358.113     1.44
elaps:  DHSCF1            1       0.129       0.129     0.00
elaps:  DHSCF2            1       5.599       5.599     0.02
elaps:  REORD           202       0.002       0.368     0.00
elaps:  POISON           26       0.462      12.024     0.05
elaps:  DHSCF3           25      13.732     343.299     1.38
elaps:  rhoofd           25       4.694     117.338     0.47
elaps:  cellXC           25       0.444      11.109     0.04
elaps:  vmat             25       6.987     174.676     0.70
elaps:  MolMec            2       0.000       0.000     0.00
elaps:  diagon           24    1021.679   24520.304    98.51
elaps:  c-eigval       8448       0.905    7648.588    30.73
elaps:  c-buildHS      8448       0.029     242.152     0.97
elaps:  cdiag         16896       0.913   15418.133    61.94
elaps:  cdiag1        16896       0.058     973.100     3.91
elaps:  cdiag2        16896       0.248    4195.617    16.86
elaps:  cdiag3        16896       0.522    8825.305    35.46
elaps:  cdiag4        16896       0.036     603.924     2.43
elaps:  c-eigvec       8448       0.961    8118.131    32.61
elaps:  c-buildD       8448       1.035    8740.108    35.11
elaps:  DHSCF4            1       8.780       8.780     0.04
elaps:  dfscf             1       8.277       8.277     0.03
elaps:  overfsm           1       0.058       0.058     0.00
elaps:  optical           1       0.000       0.000     0.00
  
>> End of run:   4-DEC-2015   5:21:08
