Siesta Version:                                        siesta-3.2-pl-3
Architecture  : x86_64-unknown-linux-gnu--unknown
Compiler flags: mpiifort -g -O2 -fPIC -xSSE4.1 -fp-model source -shared-intel 
PARALLEL version

* Running on    8 nodes in parallel
>> Start of run:   4-DEC-2015  18:42:53

                           ***********************       
                           *  WELCOME TO SIESTA  *       
                           ***********************       

reinit: Reading from standard input
************************** Dump of input data file ****************************
#(1) General system descriptors
SystemName            GRP_doping    # Descriptive name of the system
SystemLabel           GRP_doping    # Short name for naming files
%include STRUCT.fdf
%include KPT.fdf
%include BASIS.fdf
#%include TS.fdf # for transiesta calculation
#(4) DFT, Grid, SCF
XC.functional         GGA           # LDA or GGA (default = LDA)
XC.authors            PBE           # CA (Ceperley-Aldr) = PZ
                                    #    (Perdew-Zunger) - LDA - Default
                                    # PW92 (Perdew-Wang-92) - LDA
                                    # PBE (Perdew-Burke-Ernzerhof) - GGA
MeshCutoff            200.000000    Ry      # Default: 50.0 Ry ~ 0.444 Bohr
                                    #         100.0 Ry ~ 0.314 Bohr
MaxSCFIterations      500           # Default: 50
DM.MixingWeight       0.05          # Default: 0.25
DM.NumberPulay        10            # Default: 0
DM.PulayOnFile        F             # SystemLabel.P1, SystemLabel.P2
DM.Tolerance          1.d-4         # Default: 1.d-4
DM.UseSaveDM          .true.        # because of the bug
SCFMustConverge       .true.
NeglNonOverlapInt     F             # Default: F
#(5) Eigenvalue problem: order-N or diagonalization
SolutionMethod        Diagon        # or Transiesta
ElectronicTemperature 300.0 K       # Default: 300.0 K
#(6) Molecular dynamics and relaxations
#MD.TypeOfRun          CG            # Type of dynamics:
#MD.VariableCell       F
#MD.NumCGsteps         0           # 0 for single-point / 100 for gopt
#MD.MaxCGDispl         0.2 Bohr      # Default: 0.2 Bohr
#MD.MaxForceTol        0.02 eV/Ang   # Default: 0.04 eV/Ang
#MD.MaxStressTol       1.0 GPa       # Default: 1.0 GPa
# Geometry Constraints
#%block GeometryConstraints
#	position from 1 to 44
#%endblock GeometryConstraints
************************** End of input data file *****************************

reinit: -----------------------------------------------------------------------
reinit: System Name: GRP_doping
reinit: -----------------------------------------------------------------------
reinit: System Label: GRP_doping                                                  
reinit: -----------------------------------------------------------------------

initatom: Reading input for the pseudopotentials and atomic orbitals ----------
 Species number:            1  Label: B Atomic number:           5
 Species number:            2  Label: C Atomic number:           6
Ground state valence configuration:   2s02  2p01
Reading pseudopotential information in formatted form from B.psf

Valence configuration for pseudopotential generation:
2s( 2.00) rc: 1.74
2p( 1.00) rc: 1.74
3d( 0.00) rc: 1.74
4f( 0.00) rc: 1.74
Ground state valence configuration:   2s02  2p02
Reading pseudopotential information in formatted form from C.psf

Valence configuration for pseudopotential generation:
2s( 2.00) rc: 1.54
2p( 2.00) rc: 1.54
3d( 0.00) rc: 1.54
4f( 0.00) rc: 1.54
For B, standard SIESTA heuristics set lmxkb to 3
 (one more than the basis l, including polarization orbitals).
Use PS.lmax or PS.KBprojectors blocks to override.
For C, standard SIESTA heuristics set lmxkb to 3
 (one more than the basis l, including polarization orbitals).
Use PS.lmax or PS.KBprojectors blocks to override.

<basis_specs>
===============================================================================
B                    Z=   5    Mass=  10.810        Charge= 0.17977+309
Lmxo=1 Lmxkb= 3    BasisType=split      Semic=F
L=0  Nsemic=0  Cnfigmx=2
          n=1  nzeta=2  polorb=0
            splnorm:   0.15000    
               vcte:    0.0000    
               rinn:    0.0000    
                rcs:    0.0000      0.0000    
            lambdas:    1.0000      1.0000    
L=1  Nsemic=0  Cnfigmx=2
          n=1  nzeta=2  polorb=1
            splnorm:   0.15000    
               vcte:    0.0000    
               rinn:    0.0000    
                rcs:    0.0000      0.0000    
            lambdas:    1.0000      1.0000    
-------------------------------------------------------------------------------
L=0  Nkbl=1  erefs: 0.17977+309
L=1  Nkbl=1  erefs: 0.17977+309
L=2  Nkbl=1  erefs: 0.17977+309
L=3  Nkbl=1  erefs: 0.17977+309
===============================================================================
</basis_specs>

atom: Called for B                     (Z =   5)

read_vps: Pseudopotential generation method:
read_vps: ATM3      Troullier-Martins                       
Total valence charge:    3.00000

read_vps: Pseudopotential includes a core correction:
read_vps: Pseudo-core for xc-correction

xc_check: Exchange-correlation functional:
xc_check: GGA Perdew, Burke & Ernzerhof 1996
V l=0 = -2*Zval/r beyond r=  1.7165
V l=1 = -2*Zval/r beyond r=  1.7165
V l=2 = -2*Zval/r beyond r=  1.7165
V l=3 = -2*Zval/r beyond r=  1.6951
All V_l potentials equal beyond r=  1.7165
This should be close to max(r_c) in ps generation
All pots = -2*Zval/r beyond r=  1.7165

VLOCAL1: 99.0% of the norm of Vloc inside     14.733 Ry
VLOCAL1: 99.9% of the norm of Vloc inside     33.577 Ry
atom: Maximum radius for 4*pi*r*r*local-pseudopot. charge    2.04484
atom: Maximum radius for r*vlocal+2*Zval:    1.75994
GHOST: No ghost state for L =  0
GHOST: No ghost state for L =  1
GHOST: No ghost state for L =  2
GHOST: No ghost state for L =  3

KBgen: Kleinman-Bylander projectors: 
   l= 0   rc=  1.897051   el= -0.693730   Ekb=  4.595746   kbcos=  0.286105
   l= 1   rc=  1.920920   el= -0.265236   Ekb= -2.350715   kbcos= -0.315747
   l= 2   rc=  2.044840   el=  0.002055   Ekb= -0.690767   kbcos= -0.013822
   l= 3   rc=  2.149707   el=  0.003188   Ekb= -0.315358   kbcos= -0.002055

KBgen: Total number of  Kleinman-Bylander projectors:   16
atom: -------------------------------------------------------------------------

atom: SANKEY-TYPE ORBITALS:
atom: Selected multiple-zeta basis: split     

SPLIT: Orbitals with angular momentum L= 0

SPLIT: Basis orbitals for state 2s

SPLIT: PAO cut-off radius determined from an
SPLIT: energy shift=  0.007350 Ry

   izeta = 1
                 lambda =    1.000000
                     rc =    5.422032
                 energy =   -0.686029
                kinetic =    0.576707
    potential(screened) =   -1.262736
       potential(ionic) =   -3.271094

   izeta = 2
                 rmatch =    4.222573
              splitnorm =    0.150000
                 energy =   -0.602132
                kinetic =    0.858975
    potential(screened) =   -1.461107
       potential(ionic) =   -3.582536

SPLIT: Orbitals with angular momentum L= 1

SPLIT: Basis orbitals for state 2p

SPLIT: PAO cut-off radius determined from an
SPLIT: energy shift=  0.007350 Ry

   izeta = 1
                 lambda =    1.000000
                     rc =    6.790259
                 energy =   -0.258578
                kinetic =    1.481412
    potential(screened) =   -1.739989
       potential(ionic) =   -3.657461

   izeta = 2
                 rmatch =    4.608740
              splitnorm =    0.150000
                 energy =   -0.173757
                kinetic =    2.186690
    potential(screened) =   -2.360447
       potential(ionic) =   -4.464260

POLgen: Perturbative polarization orbital with L=  2

POLgen: Polarization orbital for state 2p

   izeta = 1
                     rc =    6.790259
                 energy =    0.684082
                kinetic =    1.471481
    potential(screened) =   -0.787399
       potential(ionic) =   -2.406985
atom: Total number of Sankey-type orbitals: 13

atm_pop: Valence configuration (for local Pseudopot. screening):
 2s( 2.00)                                                            
 2p( 1.00)                                                            
Vna: chval, zval:    3.00000   3.00000

Vna:  Cut-off radius for the neutral-atom potential:   6.790259
comcore: Pseudo-core radius Rcore=  2.122997

atom: _________________________________________________________________________

<basis_specs>
===============================================================================
C                    Z=   6    Mass=  12.010        Charge= 0.17977+309
Lmxo=1 Lmxkb= 3    BasisType=split      Semic=F
L=0  Nsemic=0  Cnfigmx=2
          n=1  nzeta=2  polorb=0
            splnorm:   0.15000    
               vcte:    0.0000    
               rinn:    0.0000    
                rcs:    0.0000      0.0000    
            lambdas:    1.0000      1.0000    
L=1  Nsemic=0  Cnfigmx=2
          n=1  nzeta=2  polorb=1
            splnorm:   0.15000    
               vcte:    0.0000    
               rinn:    0.0000    
                rcs:    0.0000      0.0000    
            lambdas:    1.0000      1.0000    
-------------------------------------------------------------------------------
L=0  Nkbl=1  erefs: 0.17977+309
L=1  Nkbl=1  erefs: 0.17977+309
L=2  Nkbl=1  erefs: 0.17977+309
L=3  Nkbl=1  erefs: 0.17977+309
===============================================================================
</basis_specs>

atom: Called for C                     (Z =   6)

read_vps: Pseudopotential generation method:
read_vps: ATM3      Troullier-Martins                       
Total valence charge:    4.00000

read_vps: Pseudopotential includes a core correction:
read_vps: Pseudo-core for xc-correction

xc_check: Exchange-correlation functional:
xc_check: GGA Perdew, Burke & Ernzerhof 1996
V l=0 = -2*Zval/r beyond r=  1.5227
V l=1 = -2*Zval/r beyond r=  1.5227
V l=2 = -2*Zval/r beyond r=  1.5227
V l=3 = -2*Zval/r beyond r=  1.5038
All V_l potentials equal beyond r=  1.5227
This should be close to max(r_c) in ps generation
All pots = -2*Zval/r beyond r=  1.5227

VLOCAL1: 99.0% of the norm of Vloc inside     18.722 Ry
VLOCAL1: 99.9% of the norm of Vloc inside     42.668 Ry
atom: Maximum radius for 4*pi*r*r*local-pseudopot. charge    1.83678
atom: Maximum radius for r*vlocal+2*Zval:    1.58088
GHOST: No ghost state for L =  0
GHOST: No ghost state for L =  1
GHOST: No ghost state for L =  2
GHOST: No ghost state for L =  3

KBgen: Kleinman-Bylander projectors: 
   l= 0   rc=  1.704034   el= -1.009801   Ekb=  5.335044   kbcos=  0.316824
   l= 1   rc=  1.704034   el= -0.388707   Ekb= -3.785862   kbcos= -0.366464
   l= 2   rc=  1.791422   el=  0.001971   Ekb= -0.970471   kbcos= -0.009212
   l= 3   rc=  1.859892   el=  0.003065   Ekb= -0.399525   kbcos= -0.001223

KBgen: Total number of  Kleinman-Bylander projectors:   16
atom: -------------------------------------------------------------------------

atom: SANKEY-TYPE ORBITALS:
atom: Selected multiple-zeta basis: split     

SPLIT: Orbitals with angular momentum L= 0

SPLIT: Basis orbitals for state 2s

SPLIT: PAO cut-off radius determined from an
SPLIT: energy shift=  0.007350 Ry

   izeta = 1
                 lambda =    1.000000
                     rc =    4.632753
                 energy =   -1.002270
                kinetic =    0.855760
    potential(screened) =   -1.858031
       potential(ionic) =   -5.417575

   izeta = 2
                 rmatch =    3.431921
              splitnorm =    0.150000
                 energy =   -0.867111
                kinetic =    1.300804
    potential(screened) =   -2.167915
       potential(ionic) =   -5.962684

SPLIT: Orbitals with angular momentum L= 1

SPLIT: Basis orbitals for state 2p

SPLIT: PAO cut-off radius determined from an
SPLIT: energy shift=  0.007350 Ry

   izeta = 1
                 lambda =    1.000000
                     rc =    5.658549
                 energy =   -0.381140
                kinetic =    2.399701
    potential(screened) =   -2.780841
       potential(ionic) =   -6.206085

   izeta = 2
                 rmatch =    3.653288
              splitnorm =    0.150000
                 energy =   -0.249149
                kinetic =    3.542762
    potential(screened) =   -3.791911
       potential(ionic) =   -7.581078

POLgen: Perturbative polarization orbital with L=  2

POLgen: Polarization orbital for state 2p

   izeta = 1
                     rc =    5.658549
                 energy =    1.109913
                kinetic =    2.304789
    potential(screened) =   -1.194876
       potential(ionic) =   -4.013592
atom: Total number of Sankey-type orbitals: 13

atm_pop: Valence configuration (for local Pseudopot. screening):
 2s( 2.00)                                                            
 2p( 2.00)                                                            
Vna: chval, zval:    4.00000   4.00000

Vna:  Cut-off radius for the neutral-atom potential:   5.658549
comcore: Pseudo-core radius Rcore=  1.791422

atom: _________________________________________________________________________

prinput: Basis input ----------------------------------------------------------

PAO.BasisType split     

%block ChemicalSpeciesLabel
    1    5 B                       # Species index, atomic number, species label
    2    6 C                       # Species index, atomic number, species label
%endblock ChemicalSpeciesLabel

%block PAO.Basis                 # Define Basis set
B                     2                    # Species label, number of l-shells
 n=2   0   2                         # n, l, Nzeta 
   5.422      4.223   
   1.000      1.000   
 n=2   1   2 P   1                   # n, l, Nzeta, Polarization, NzetaPol
   6.790      4.609   
   1.000      1.000   
C                     2                    # Species label, number of l-shells
 n=2   0   2                         # n, l, Nzeta 
   4.633      3.432   
   1.000      1.000   
 n=2   1   2 P   1                   # n, l, Nzeta, Polarization, NzetaPol
   5.659      3.653   
   1.000      1.000   
%endblock PAO.Basis

prinput: ----------------------------------------------------------------------

coor:   Atomic-coordinates input format  =     Cartesian coordinates
coor:                                          (in Angstroms)

siesta: Atomic coordinates (Bohr) and species
siesta:      2.23554   1.32097   0.00000  1        1
siesta:      4.56367   2.66461   0.00000  1        2
siesta:     32.50291  13.41944   0.00000  1        3
siesta:     27.84639   5.35379   0.00000  1        4
siesta:     27.84714  21.48508   0.00000  1        5
siesta:     11.54782   1.32097   0.00000  1        6
siesta:     13.87595   2.66461   0.00000  1        7
siesta:     20.86199   1.32097   0.00000  1        8
siesta:     23.19013   2.66461   0.00000  1        9
siesta:      9.21994   5.35379   0.00000  1       10
siesta:     18.53411   5.35379   0.00000  1       11
siesta:      6.89205   9.38661   0.00000  1       12
siesta:      9.22019  10.73026   0.00000  1       13
siesta:     16.20434   9.38661   0.00000  1       14
siesta:     18.53247  10.73026   0.00000  1       15
siesta:     13.87645  13.41944   0.00000  1       16
siesta:     11.54857  17.45226   0.00000  1       17
siesta:     13.87670  18.79590   0.00000  1       18
siesta:     18.53486  21.48508   0.00000  1       19
siesta:     25.51851   9.38661   0.00000  1       20
siesta:     27.84664  10.73026   0.00000  1       21
siesta:     23.19063  13.41944   0.00000  1       22
siesta:     20.86274  17.45226   0.00000  1       23
siesta:     23.19088  18.79590   0.00000  1       24
siesta:     30.17503  17.45226   0.00000  1       25
siesta:     32.50316  18.79590   0.00000  1       26
siesta:     37.16131  21.48508   0.00000  1       27
siesta:     32.50328  21.48508   0.00000  2       28
siesta:     34.83141  22.82873   0.00000  2       29
siesta:     34.83116  17.45226   0.00000  2       30
siesta:     37.15930  18.79590   0.00000  2       31
siesta:     34.83104  14.76308   0.00000  2       32
siesta:     30.17465   9.38661   0.00000  2       33
siesta:     32.50278  10.73026   0.00000  2       34
siesta:     30.17453   6.69743   0.00000  2       35
siesta:     30.17527  22.82873   0.00000  2       36
siesta:      6.89168   1.32097   0.00000  2       37
siesta:      9.21981   2.66461   0.00000  2       38
siesta:     16.20396   1.32097   0.00000  2       39
siesta:     18.53210   2.66461   0.00000  2       40
siesta:     25.51813   1.32097   0.00000  2       41
siesta:     27.84627   2.66461   0.00000  2       42
siesta:      4.56380   5.35379   0.00000  2       43
siesta:      6.89193   6.69743   0.00000  2       44
siesta:     11.54807   6.69743   0.00000  2       45
siesta:     13.87608   5.35379   0.00000  2       46
siesta:     16.20421   6.69743   0.00000  2       47
siesta:     20.86224   6.69743   0.00000  2       48
siesta:     23.19025   5.35379   0.00000  2       49
siesta:     25.51838   6.69743   0.00000  2       50
siesta:     11.54820   9.38661   0.00000  2       51
siesta:     13.87633  10.73026   0.00000  2       52
siesta:     20.86237   9.38661   0.00000  2       53
siesta:     23.19050  10.73026   0.00000  2       54
siesta:      9.22031  13.41944   0.00000  2       55
siesta:     11.54845  14.76308   0.00000  2       56
siesta:     16.20459  14.76308   0.00000  2       57
siesta:     18.53448  13.41944   0.00000  2       58
siesta:     20.86262  14.76308   0.00000  2       59
siesta:     16.20471  17.45226   0.00000  2       60
siesta:     18.53284  18.79590   0.00000  2       61
siesta:     13.87683  21.48508   0.00000  2       62
siesta:     16.20496  22.82873   0.00000  2       63
siesta:     20.86299  22.82873   0.00000  2       64
siesta:     25.51876  14.76308   0.00000  2       65
siesta:     27.84677  13.41944   0.00000  2       66
siesta:     30.17490  14.76308   0.00000  2       67
siesta:     25.51888  17.45226   0.00000  2       68
siesta:     27.84702  18.79590   0.00000  2       69
siesta:     23.19100  21.48508   0.00000  2       70
siesta:     25.51913  22.82873   0.00000  2       71
siesta:     39.48945  22.82873   0.00000  2       72

siesta: System type = slab      

initatomlists: Number of atoms, orbitals, and projectors:     72   936  1152

siesta: ******************** Simulation parameters ****************************
siesta:
siesta: The following are some of the parameters of the simulation.
siesta: A complete list of the parameters used, including default values,
siesta: can be found in file out.fdf
siesta:
redata: Non-Collinear-spin run           =     F
redata: SpinPolarized (Up/Down) run      =     F
redata: Number of spin components        =     1
redata: Long output                      =     F
redata: Number of Atomic Species         =        2
redata: Charge density info will appear in .RHO file
redata: Write Mulliken Pop.              =     NO
redata: Mesh Cutoff                      =   200.0000  Ry
redata: Net charge of the system         =     0.0000 |e|
redata: Max. number of SCF Iter          =      500
redata: SCF convergence failure will abort job
redata: Performing Pulay mixing using    =    10 iterations
redata: Mix DM in first SCF step ?       =     F
redata: Write Pulay info on disk?        =     F
redata: Discard 1st Pulay DM after  kick =     F
redata: New DM Mixing Weight             =     0.0500
redata: New DM Occupancy tolerance       = 0.000000000001
redata: No kicks to SCF
redata: DM Mixing Weight for Kicks       =     0.5000
redata: DM Tolerance for SCF             =     0.000100
redata: Require Energy convergence for SCF =     F
redata: DM Energy tolerance for SCF      =     0.000100 eV
redata: Require Harris convergence for SCF =     F
redata: DM Harris energy tolerance for SCF =     0.000100 eV
redata: Using Saved Data (generic)   =     F
redata: Use continuation files for DM    =     T
redata: Neglect nonoverlap interactions  =     F
redata: Method of Calculation            =     Diagonalization
redata: Divide and Conquer               =     T
redata: Electronic Temperature           =     0.0019  Ry
redata: Fix the spin of the system       =     F
redata: Dynamics option                  =     Verlet MD run
redata: Initial MD time step             =        1
redata:   Final MD time step             =        1
redata: Length of MD time step           =     1.0000  fs
redata: Initial Temperature of MD run    =     0.0000  K
redata: Perform a MD quench              =     F
redata: ***********************************************************************
Total number of electrons:   261.000000
Total ionic charge:   261.000000

* ProcessorY, Blocksize:    2  24

k-point displ. along   1 input, could be:     0.00    0.50
k-point displ. along   2 input, could be:     0.00    0.50
 Kpoints in:          364 . Kpoints trimmed:          352

siesta: k-grid: Number of k-points =   352
siesta: k-grid: Cutoff (effective) =     5.000 Ang
siesta: k-grid: Supercell and displacements
siesta: k-grid:   26   0   0      0.000
siesta: k-grid:    0  26   0      0.000
siesta: k-grid:    0   0   1      0.000
Naive supercell factors:     2    2    2

superc: Internal auxiliary supercell:     2 x     2 x     2  =       8
superc: Number of atoms, orbitals, and projectors:    576   7488   9216

* Maximum dynamic memory allocated =     6 MB

siesta:                 ==============================
                            Begin MD step =      1
                        ==============================

superc: Internal auxiliary supercell:     2 x     2 x     2  =       8
superc: Number of atoms, orbitals, and projectors:    576   7488   9216

outcell: Unit cell vectors (Ang):
       14.785000    0.000000    0.000000
        7.393000   12.805052    0.000000
        0.000000    0.000000   10.000000

outcell: Cell vector modules (Ang)   :   14.785000   14.786000   10.000000
outcell: Cell angles (23,13,12) (deg):     90.0000     90.0000     60.0000
outcell: Cell volume (Ang**3)        :   1893.2269
New_DM. Step:     1
Initializing Density Matrix...

InitMesh: MESH =   120 x   120 x    90 =     1296000
InitMesh: Mesh cutoff (required, used) =   200.000   223.865 Ry

* Maximum dynamic memory allocated =   231 MB

stepf: Fermi-Dirac step function

siesta: Program's energy decomposition (eV):
siesta: Ebs     =     -4193.429043
siesta: Eions   =     14945.479869
siesta: Ena     =      3357.640112
siesta: Ekin    =      4954.252969
siesta: Enl     =       454.359500
siesta: DEna    =        -0.000005
siesta: DUscf   =         0.000000
siesta: DUext   =         0.000000
siesta: Exc     =     -4005.501434
siesta: eta*DQ  =         0.000000
siesta: Emadel  =         0.000000
siesta: Emeta   =         0.000000
siesta: Emolmec =         0.000000
siesta: Ekinion =         0.000000
siesta: Eharris =    -10091.972777
siesta: Etot    =    -10184.728725
siesta: FreeEng =    -10184.728725

siesta: iscf   Eharris(eV)      E_KS(eV)   FreeEng(eV)   dDmax  Ef(eV)
siesta:    1   -10091.9728   -10184.7287   -10184.7287  1.8630 -9.5149
timer: Routine,Calls,Time,% = IterSCF        1    6880.689  99.82
elaps: Routine,Calls,Wall,% = IterSCF        1     861.223  99.82
siesta:    2   -10085.4131   -10019.3414   -10019.3786  0.9202 -3.6745
siesta:    3   -10052.5957   -10097.8715   -10097.9490  0.7738 -6.2753
siesta:    4   -10053.3857   -10096.6654   -10096.6963  0.7694 -6.1705
siesta:    5   -10053.8690   -10065.9455   -10065.9730  0.2647 -6.4513
siesta:    6   -10051.8205   -10054.2349   -10054.2720  0.1316 -6.1432
siesta:    7   -10049.6774   -10050.3953   -10050.4302  0.0451 -6.2703
siesta:    8   -10049.3643   -10048.4775   -10048.5141  0.0106 -6.3459
siesta:    9   -10049.3387   -10048.7163   -10048.7546  0.0113 -6.3451
siesta:   10   -10049.3323   -10048.9073   -10048.9453  0.0082 -6.3380
siesta:   11   -10049.3303   -10049.0389   -10049.0768  0.0064 -6.3306
siesta:   12   -10049.3279   -10049.2829   -10049.3208  0.0030 -6.3176
siesta:   13   -10049.3277   -10049.3283   -10049.3663  0.0019 -6.3141
siesta:   14   -10049.3274   -10049.3530   -10049.3910  0.0007 -6.3117
siesta:   15   -10049.3274   -10049.3474   -10049.3854  0.0003 -6.3120
siesta:   16   -10049.3273   -10049.3396   -10049.3776  0.0003 -6.3121
siesta:   17   -10049.3273   -10049.3421   -10049.3800  0.0002 -6.3128
siesta:   18   -10049.3273   -10049.3429   -10049.3809  0.0002 -6.3131
siesta:   19   -10049.3273   -10049.3356   -10049.3736  0.0002 -6.3131
siesta:   20   -10049.3273   -10049.3330   -10049.3710  0.0001 -6.3133

siesta: E_KS(eV) =           -10049.3278

siesta: E_KS - E_eggbox =    -10049.3278

siesta: Atomic forces (eV/Ang):
----------------------------------------
   Tot    0.177054    0.233952    0.000000
----------------------------------------
   Max    4.632254
   Res    2.419962    sqrt( Sum f_i^2 / 3N )
----------------------------------------
   Max    4.632254    constrained

Stress-tensor-Voigt (kbar):     -263.15     -264.87       -0.72        2.61        0.00        0.00
(Free)E + p*V (eV/cell)    -9841.1041
Target enthalpy (eV/cell)   -10049.3658

siesta: Stress tensor (static) (eV/Ang**3):
        -0.164242    0.001627    0.000000
         0.001627   -0.165319    0.000000
         0.000000    0.000000   -0.000449

siesta: Pressure (static):        176.24701941  kBar

siesta: Stress tensor (total) (eV/Ang**3):
        -0.164242    0.001627    0.000000
         0.001627   -0.165319    0.000000
         0.000000    0.000000   -0.000449

siesta: Pressure (total):        176.24701941  kBar

siesta: Temp_ion =       0.000 K

* Maximum dynamic memory allocated =   245 MB

siesta: Program's energy decomposition (eV):
siesta: Ebs     =     -3295.859158
siesta: Eions   =     14945.479869
siesta: Ena     =      3357.640112
siesta: Ekin    =      6509.277963
siesta: Enl     =      -481.759041
siesta: DEna    =      -406.026615
siesta: DUscf   =        45.948540
siesta: DUext   =         0.000000
siesta: Exc     =     -4128.928927
siesta: eta*DQ  =         0.000000
siesta: Emadel  =         0.000000
siesta: Emeta   =         0.000000
siesta: Emolmec =         0.000000
siesta: Ekinion =         0.000000
siesta: Eharris =    -10049.327326
siesta: Etot    =    -10049.327836
siesta: FreeEng =    -10049.365810

siesta: Final energy (eV):
siesta:  Band Struct. =   -3295.859158
siesta:       Kinetic =    6509.277963
siesta:       Hartree =   18849.101214
siesta:    Ext. field =       0.000000
siesta:   Exch.-corr. =   -4128.928927
siesta:  Ion-electron =  -43530.273646
siesta:       Ion-ion =   12251.495560
siesta:       Ekinion =       0.000000
siesta:         Total =  -10049.327836

siesta: Atomic forces (eV/Ang):
siesta:      1   -4.617337   -2.674189    0.000000
siesta:      2    4.019107    2.321278    0.000000
siesta:      3   -0.236095   -0.133500    0.000000
siesta:      4   -0.234831   -0.131216    0.000000
siesta:      5   -0.238302   -0.128924    0.000000
siesta:      6   -4.610750   -2.680413    0.000000
siesta:      7    4.023604    2.320100    0.000000
siesta:      8   -4.629599   -2.664825    0.000000
siesta:      9    4.015967    2.319908    0.000000
siesta:     10   -0.239669   -0.131768    0.000000
siesta:     11   -0.266333   -0.115905    0.000000
siesta:     12   -4.623205   -2.651572    0.000000
siesta:     13    4.020844    2.326740    0.000000
siesta:     14   -4.597937   -2.658965    0.000000
siesta:     15    4.051635    2.309914    0.000000
siesta:     16   -0.231889   -0.132057    0.000000
siesta:     17   -4.618471   -2.649913    0.000000
siesta:     18    4.017358    2.324787    0.000000
siesta:     19   -0.267103   -0.113920    0.000000
siesta:     20   -4.607662   -2.658310    0.000000
siesta:     21    4.022915    2.326253    0.000000
siesta:     22   -0.234748   -0.133288    0.000000
siesta:     23   -4.632254   -2.641582    0.000000
siesta:     24    4.020245    2.325666    0.000000
siesta:     25   -4.609796   -2.659127    0.000000
siesta:     26    4.020352    2.325725    0.000000
siesta:     27   -0.268811   -0.112546    0.000000
siesta:     28    0.202770    4.399150    0.000000
siesta:     29   -3.715251   -1.591297    0.000000
siesta:     30    3.918617   -2.038122    0.000000
siesta:     31   -3.252912   -2.426643    0.000000
siesta:     32    3.752242    2.151566    0.000000
siesta:     33    3.915575   -2.041526    0.000000
siesta:     34   -3.251408   -2.426232    0.000000
siesta:     35    3.751975    2.150731    0.000000
siesta:     36    3.735142    2.174484    0.000000
siesta:     37    3.916040   -2.057445    0.000000
siesta:     38   -3.264237   -2.423884    0.000000
siesta:     39    3.925471   -2.054750    0.000000
siesta:     40   -3.242591   -2.442580    0.000000
siesta:     41    3.921498   -2.054004    0.000000
siesta:     42   -3.258492   -2.433380    0.000000
siesta:     43    0.183960    4.397177    0.000000
siesta:     44   -3.742659   -1.598488    0.000000
siesta:     45    3.739755    2.156061    0.000000
siesta:     46    0.200381    4.391975    0.000000
siesta:     47   -3.713267   -1.616193    0.000000
siesta:     48    3.731159    2.156670    0.000000
siesta:     49    0.200020    4.392243    0.000000
siesta:     50   -3.741981   -1.600319    0.000000
siesta:     51    3.913409   -2.039746    0.000000
siesta:     52   -3.269256   -2.420060    0.000000
siesta:     53    3.885103   -2.022646    0.000000
siesta:     54   -3.272853   -2.419756    0.000000
siesta:     55    0.184536    4.397628    0.000000
siesta:     56   -3.746231   -1.598929    0.000000
siesta:     57    3.763761    2.146719    0.000000
siesta:     58    0.173197    4.403287    0.000000
siesta:     59   -3.753960   -1.599848    0.000000
siesta:     60    3.924198   -2.037575    0.000000
siesta:     61   -3.238578   -2.436457    0.000000
siesta:     62    0.218148    4.392641    0.000000
siesta:     63   -3.709647   -1.591243    0.000000
siesta:     64    3.731944    2.173318    0.000000
siesta:     65    3.739880    2.156752    0.000000
siesta:     66    0.193921    4.391622    0.000000
siesta:     67   -3.738678   -1.597927    0.000000
siesta:     68    3.911174   -2.038683    0.000000
siesta:     69   -3.263405   -2.419014    0.000000
siesta:     70    0.194725    4.397642    0.000000
siesta:     71   -3.738050   -1.576144    0.000000
siesta:     72    3.714677    2.178825    0.000000
siesta: ----------------------------------------
siesta:    Tot    0.177054    0.233952    0.000000

siesta: Stress tensor (static) (eV/Ang**3):
siesta:    -0.164242    0.001627    0.000000
siesta:     0.001627   -0.165319    0.000000
siesta:     0.000000    0.000000   -0.000449

siesta: Cell volume =       1893.226895 Ang**3

siesta: Pressure (static):
siesta:                Solid            Molecule  Units
siesta:           0.00119808          0.00082124  Ry/Bohr**3
siesta:           0.11000355          0.07540326  eV/Ang**3
siesta:         176.24701941        120.81064581  kBar
(Free)E+ p_basis*V_orbitals  =      -10010.097451
(Free)Eharris+ p_basis*V_orbitals  =      -10010.091777

siesta: Electric dipole (a.u.)  =    0.000000    0.000000    0.000000
siesta: Electric dipole (Debye) =    0.000000    0.000000    0.000000

* Maximum dynamic memory allocated : Node    0 =   244 MB
* Maximum dynamic memory allocated : Node    1 =    88 MB
* Maximum dynamic memory allocated : Node    2 =    92 MB
* Maximum dynamic memory allocated : Node    3 =   231 MB
* Maximum dynamic memory allocated : Node    4 =   245 MB
* Maximum dynamic memory allocated : Node    5 =    88 MB
* Maximum dynamic memory allocated : Node    6 =    91 MB
* Maximum dynamic memory allocated : Node    7 =   226 MB

* Maximum memory occured during matrixMtoO                    

timer: CPU execution times:
timer:  Routine       Calls   Time/call    Tot.time        %
timer:  siesta            1  136443.788  136443.788   100.00
timer:  Setup             1       3.824       3.824     0.00
timer:  bands             1       0.020       0.020     0.00
timer:  writewave         1       0.040       0.040     0.00
timer:  KSV_init          1       0.006       0.006     0.00
timer:  IterMD            1  136432.073  136432.073    99.99
timer:  hsparse           1       0.389       0.389     0.00
timer:  overlap           1       7.798       7.798     0.01
timer:  IterSCF          20    6809.908  136198.156    99.82
timer:  kinefsm           2       4.080       8.159     0.01
timer:  nlefsm            2      21.631      43.262     0.03
timer:  DHSCF            21     129.208    2713.369     1.99
timer:  DHSCF1            1       0.989       0.989     0.00
timer:  DHSCF2            1      45.155      45.155     0.03
timer:  REORD           170       0.010       1.682     0.00
timer:  POISON           22       2.247      49.440     0.04
timer:  DHSCF3           21     124.812    2621.058     1.92
timer:  rhoofd           21      25.140     527.948     0.39
timer:  cellXC           21       3.518      73.868     0.05
timer:  vmat             21      65.335    1372.025     1.01
timer:  MolMec            2       0.000       0.000     0.00
timer:  diagon           20    6679.116  133582.326    97.90
timer:  c-eigval       7040       6.703   47191.663    34.59
timer:  c-buildHS      7040       0.127     893.229     0.65
timer:  cdiag         14080       6.888   96982.528    71.08
timer:  cdiag1        14080       0.429    6039.022     4.43
timer:  cdiag2        14080       1.910   26894.393    19.71
timer:  cdiag3        14080       3.959   55737.841    40.85
timer:  cdiag4        14080       0.224    3156.074     2.31
timer:  c-eigvec       7040       7.277   51233.304    37.55
timer:  c-buildD       7040       4.986   35099.053    25.72
timer:  DHSCF4            1      44.975      44.975     0.03
timer:  dfscf             1      42.236      42.236     0.03
timer:  overfsm           1       0.498       0.498     0.00
timer:  optical           1       6.941       6.941     0.01
  

elaps: ELAPSED times:
elaps:  Routine       Calls   Time/call    Tot.time        %
elaps:  siesta            1   17075.823   17075.823   100.00
elaps:  Setup             1       0.496       0.496     0.00
elaps:  bands             1       0.002       0.002     0.00
elaps:  writewave         1       0.005       0.005     0.00
elaps:  KSV_init          1       0.001       0.001     0.00
elaps:  IterMD            1   17074.332   17074.332    99.99
elaps:  hsparse           1       0.050       0.050     0.00
elaps:  overlap           1       0.981       0.981     0.01
elaps:  IterSCF          20     852.261   17045.214    99.82
elaps:  kinefsm           2       0.510       1.019     0.01
elaps:  nlefsm            2       2.758       5.516     0.03
elaps:  DHSCF            21      16.364     343.635     2.01
elaps:  DHSCF1            1       0.127       0.127     0.00
elaps:  DHSCF2            1       5.645       5.645     0.03
elaps:  REORD           170       0.001       0.227     0.00
elaps:  POISON           22       0.281       6.173     0.04
elaps:  DHSCF3           21      15.614     327.901     1.92
elaps:  rhoofd           21       5.316     111.629     0.65
elaps:  cellXC           21       0.439       9.222     0.05
elaps:  vmat             21       8.173     171.641     1.01
elaps:  MolMec            2       0.000       0.000     0.00
elaps:  diagon           20     835.903   16718.058    97.90
elaps:  c-eigval       7040       0.839    5904.408    34.58
elaps:  c-buildHS      7040       0.017     122.130     0.72
elaps:  cdiag         14080       0.850   11965.291    70.07
elaps:  cdiag1        14080       0.054     757.679     4.44
elaps:  cdiag2        14080       0.239    3365.191    19.71
elaps:  cdiag3        14080       0.496    6983.104    40.89
elaps:  cdiag4        14080       0.028     400.089     2.34
elaps:  c-eigvec       7040       0.890    6265.914    36.69
elaps:  c-buildD       7040       0.645    4539.703    26.59
elaps:  DHSCF4            1       9.802       9.802     0.06
elaps:  dfscf             1       9.279       9.279     0.05
elaps:  overfsm           1       0.065       0.065     0.00
elaps:  optical           1       0.001       0.001     0.00
  
>> End of run:   4-DEC-2015  23:27:29
