Siesta Version:                                        siesta-3.2-pl-3
Architecture  : x86_64-unknown-linux-gnu--unknown
Compiler flags: mpiifort -g -O2 -fPIC -xSSE4.1 -fp-model source -shared-intel 
PARALLEL version

* Running on    8 nodes in parallel
>> Start of run:  30-NOV-2015   0:25:57

                           ***********************       
                           *  WELCOME TO SIESTA  *       
                           ***********************       

reinit: Reading from standard input
************************** Dump of input data file ****************************
#(1) General system descriptors
SystemName            GRP_doping    # Descriptive name of the system
SystemLabel           GRP_doping    # Short name for naming files
%include STRUCT.fdf
%include KPT.fdf
%include BASIS.fdf
#%include TS.fdf # for transiesta calculation
#(4) DFT, Grid, SCF
XC.functional         GGA           # LDA or GGA (default = LDA)
XC.authors            PBE           # CA (Ceperley-Aldr) = PZ
                                    #    (Perdew-Zunger) - LDA - Default
                                    # PW92 (Perdew-Wang-92) - LDA
                                    # PBE (Perdew-Burke-Ernzerhof) - GGA
MeshCutoff            200.000000    Ry      # Default: 50.0 Ry ~ 0.444 Bohr
                                    #         100.0 Ry ~ 0.314 Bohr
MaxSCFIterations      500           # Default: 50
DM.MixingWeight       0.05          # Default: 0.25
DM.NumberPulay        10            # Default: 0
DM.PulayOnFile        F             # SystemLabel.P1, SystemLabel.P2
DM.Tolerance          1.d-4         # Default: 1.d-4
DM.UseSaveDM          .true.        # because of the bug
SCFMustConverge       .true.
NeglNonOverlapInt     F             # Default: F
#(5) Eigenvalue problem: order-N or diagonalization
SolutionMethod        Diagon        # or Transiesta
ElectronicTemperature 300.0 K       # Default: 300.0 K
#(6) Molecular dynamics and relaxations
#MD.TypeOfRun          CG            # Type of dynamics:
#MD.VariableCell       F
#MD.NumCGsteps         0           # 0 for single-point / 100 for gopt
#MD.MaxCGDispl         0.2 Bohr      # Default: 0.2 Bohr
#MD.MaxForceTol        0.02 eV/Ang   # Default: 0.04 eV/Ang
#MD.MaxStressTol       1.0 GPa       # Default: 1.0 GPa
# Geometry Constraints
#%block GeometryConstraints
#	position from 1 to 44
#%endblock GeometryConstraints
************************** End of input data file *****************************

reinit: -----------------------------------------------------------------------
reinit: System Name: GRP_doping
reinit: -----------------------------------------------------------------------
reinit: System Label: GRP_doping                                                  
reinit: -----------------------------------------------------------------------

initatom: Reading input for the pseudopotentials and atomic orbitals ----------
 Species number:            1  Label: C Atomic number:           6
 Species number:            2  Label: N Atomic number:           7
Ground state valence configuration:   2s02  2p02
Reading pseudopotential information in formatted form from C.psf

Valence configuration for pseudopotential generation:
2s( 2.00) rc: 1.54
2p( 2.00) rc: 1.54
3d( 0.00) rc: 1.54
4f( 0.00) rc: 1.54
Ground state valence configuration:   2s02  2p03
Reading pseudopotential information in formatted form from N.psf

Valence configuration for pseudopotential generation:
2s( 2.00) rc: 1.48
2p( 3.00) rc: 1.48
3d( 0.00) rc: 1.48
4f( 0.00) rc: 1.48
For C, standard SIESTA heuristics set lmxkb to 3
 (one more than the basis l, including polarization orbitals).
Use PS.lmax or PS.KBprojectors blocks to override.
For N, standard SIESTA heuristics set lmxkb to 3
 (one more than the basis l, including polarization orbitals).
Use PS.lmax or PS.KBprojectors blocks to override.

<basis_specs>
===============================================================================
C                    Z=   6    Mass=  12.010        Charge= 0.17977+309
Lmxo=1 Lmxkb= 3    BasisType=split      Semic=F
L=0  Nsemic=0  Cnfigmx=2
          n=1  nzeta=2  polorb=0
            splnorm:   0.15000    
               vcte:    0.0000    
               rinn:    0.0000    
                rcs:    0.0000      0.0000    
            lambdas:    1.0000      1.0000    
L=1  Nsemic=0  Cnfigmx=2
          n=1  nzeta=2  polorb=1
            splnorm:   0.15000    
               vcte:    0.0000    
               rinn:    0.0000    
                rcs:    0.0000      0.0000    
            lambdas:    1.0000      1.0000    
-------------------------------------------------------------------------------
L=0  Nkbl=1  erefs: 0.17977+309
L=1  Nkbl=1  erefs: 0.17977+309
L=2  Nkbl=1  erefs: 0.17977+309
L=3  Nkbl=1  erefs: 0.17977+309
===============================================================================
</basis_specs>

atom: Called for C                     (Z =   6)

read_vps: Pseudopotential generation method:
read_vps: ATM3      Troullier-Martins                       
Total valence charge:    4.00000

read_vps: Pseudopotential includes a core correction:
read_vps: Pseudo-core for xc-correction

xc_check: Exchange-correlation functional:
xc_check: GGA Perdew, Burke & Ernzerhof 1996
V l=0 = -2*Zval/r beyond r=  1.5227
V l=1 = -2*Zval/r beyond r=  1.5227
V l=2 = -2*Zval/r beyond r=  1.5227
V l=3 = -2*Zval/r beyond r=  1.5038
All V_l potentials equal beyond r=  1.5227
This should be close to max(r_c) in ps generation
All pots = -2*Zval/r beyond r=  1.5227

VLOCAL1: 99.0% of the norm of Vloc inside     18.722 Ry
VLOCAL1: 99.9% of the norm of Vloc inside     42.668 Ry
atom: Maximum radius for 4*pi*r*r*local-pseudopot. charge    1.83678
atom: Maximum radius for r*vlocal+2*Zval:    1.58088
GHOST: No ghost state for L =  0
GHOST: No ghost state for L =  1
GHOST: No ghost state for L =  2
GHOST: No ghost state for L =  3

KBgen: Kleinman-Bylander projectors: 
   l= 0   rc=  1.704034   el= -1.009801   Ekb=  5.335044   kbcos=  0.316824
   l= 1   rc=  1.704034   el= -0.388707   Ekb= -3.785862   kbcos= -0.366464
   l= 2   rc=  1.791422   el=  0.001971   Ekb= -0.970471   kbcos= -0.009212
   l= 3   rc=  1.859892   el=  0.003065   Ekb= -0.399525   kbcos= -0.001223

KBgen: Total number of  Kleinman-Bylander projectors:   16
atom: -------------------------------------------------------------------------

atom: SANKEY-TYPE ORBITALS:
atom: Selected multiple-zeta basis: split     

SPLIT: Orbitals with angular momentum L= 0

SPLIT: Basis orbitals for state 2s

SPLIT: PAO cut-off radius determined from an
SPLIT: energy shift=  0.007350 Ry

   izeta = 1
                 lambda =    1.000000
                     rc =    4.632753
                 energy =   -1.002270
                kinetic =    0.855760
    potential(screened) =   -1.858031
       potential(ionic) =   -5.417575

   izeta = 2
                 rmatch =    3.431921
              splitnorm =    0.150000
                 energy =   -0.867111
                kinetic =    1.300804
    potential(screened) =   -2.167915
       potential(ionic) =   -5.962684

SPLIT: Orbitals with angular momentum L= 1

SPLIT: Basis orbitals for state 2p

SPLIT: PAO cut-off radius determined from an
SPLIT: energy shift=  0.007350 Ry

   izeta = 1
                 lambda =    1.000000
                     rc =    5.658549
                 energy =   -0.381140
                kinetic =    2.399701
    potential(screened) =   -2.780841
       potential(ionic) =   -6.206085

   izeta = 2
                 rmatch =    3.653288
              splitnorm =    0.150000
                 energy =   -0.249149
                kinetic =    3.542762
    potential(screened) =   -3.791911
       potential(ionic) =   -7.581078

POLgen: Perturbative polarization orbital with L=  2

POLgen: Polarization orbital for state 2p

   izeta = 1
                     rc =    5.658549
                 energy =    1.109913
                kinetic =    2.304789
    potential(screened) =   -1.194876
       potential(ionic) =   -4.013592
atom: Total number of Sankey-type orbitals: 13

atm_pop: Valence configuration (for local Pseudopot. screening):
 2s( 2.00)                                                            
 2p( 2.00)                                                            
Vna: chval, zval:    4.00000   4.00000

Vna:  Cut-off radius for the neutral-atom potential:   5.658549
comcore: Pseudo-core radius Rcore=  1.791422

atom: _________________________________________________________________________

<basis_specs>
===============================================================================
N                    Z=   7    Mass=  14.010        Charge= 0.17977+309
Lmxo=1 Lmxkb= 3    BasisType=split      Semic=F
L=0  Nsemic=0  Cnfigmx=2
          n=1  nzeta=2  polorb=0
            splnorm:   0.15000    
               vcte:    0.0000    
               rinn:    0.0000    
                rcs:    0.0000      0.0000    
            lambdas:    1.0000      1.0000    
L=1  Nsemic=0  Cnfigmx=2
          n=1  nzeta=2  polorb=1
            splnorm:   0.15000    
               vcte:    0.0000    
               rinn:    0.0000    
                rcs:    0.0000      0.0000    
            lambdas:    1.0000      1.0000    
-------------------------------------------------------------------------------
L=0  Nkbl=1  erefs: 0.17977+309
L=1  Nkbl=1  erefs: 0.17977+309
L=2  Nkbl=1  erefs: 0.17977+309
L=3  Nkbl=1  erefs: 0.17977+309
===============================================================================
</basis_specs>

atom: Called for N                     (Z =   7)

read_vps: Pseudopotential generation method:
read_vps: ATM3      Troullier-Martins                       
Total valence charge:    5.00000

read_vps: Pseudopotential includes a core correction:
read_vps: Pseudo-core for xc-correction

xc_check: Exchange-correlation functional:
xc_check: GGA Perdew, Burke & Ernzerhof 1996
V l=0 = -2*Zval/r beyond r=  1.4606
V l=1 = -2*Zval/r beyond r=  1.4606
V l=2 = -2*Zval/r beyond r=  1.4606
V l=3 = -2*Zval/r beyond r=  1.4606
All V_l potentials equal beyond r=  1.4606
This should be close to max(r_c) in ps generation
All pots = -2*Zval/r beyond r=  1.4606

VLOCAL1: 99.0% of the norm of Vloc inside     20.347 Ry
VLOCAL1: 99.9% of the norm of Vloc inside     46.372 Ry
atom: Maximum radius for 4*pi*r*r*local-pseudopot. charge    1.76189
atom: Maximum radius for r*vlocal+2*Zval:    1.53550
GHOST: No ghost state for L =  0
GHOST: No ghost state for L =  1
GHOST: No ghost state for L =  2
GHOST: No ghost state for L =  3

KBgen: Kleinman-Bylander projectors: 
   l= 0   rc=  1.634559   el= -1.363963   Ekb=  5.296955   kbcos=  0.335621
   l= 1   rc=  1.614250   el= -0.521451   Ekb= -5.259161   kbcos= -0.433408
   l= 2   rc=  1.718383   el=  0.001991   Ekb= -1.271464   kbcos= -0.007566
   l= 3   rc=  1.761893   el=  0.003093   Ekb= -0.494769   kbcos= -0.001015

KBgen: Total number of  Kleinman-Bylander projectors:   16
atom: -------------------------------------------------------------------------

atom: SANKEY-TYPE ORBITALS:
atom: Selected multiple-zeta basis: split     

SPLIT: Orbitals with angular momentum L= 0

SPLIT: Basis orbitals for state 2s

SPLIT: PAO cut-off radius determined from an
SPLIT: energy shift=  0.007350 Ry

   izeta = 1
                 lambda =    1.000000
                     rc =    4.071465
                 energy =   -1.356470
                kinetic =    1.176977
    potential(screened) =   -2.533447
       potential(ionic) =   -8.057990

   izeta = 2
                 rmatch =    2.905100
              splitnorm =    0.150000
                 energy =   -1.158343
                kinetic =    1.813009
    potential(screened) =   -2.971352
       potential(ionic) =   -8.901931

SPLIT: Orbitals with angular momentum L= 1

SPLIT: Basis orbitals for state 2p

SPLIT: PAO cut-off radius determined from an
SPLIT: energy shift=  0.007350 Ry

   izeta = 1
                 lambda =    1.000000
                     rc =    4.972977
                 energy =   -0.513884
                kinetic =    3.441732
    potential(screened) =   -3.955616
       potential(ionic) =   -9.287901

   izeta = 2
                 rmatch =    3.054066
              splitnorm =    0.150000
                 energy =   -0.318226
                kinetic =    5.125348
    potential(screened) =   -5.443573
       potential(ionic) =  -11.380999

POLgen: Perturbative polarization orbital with L=  2

POLgen: Polarization orbital for state 2p

   izeta = 1
                     rc =    4.972977
                 energy =    1.607437
                kinetic =    3.268125
    potential(screened) =   -1.660688
       potential(ionic) =   -5.973652
atom: Total number of Sankey-type orbitals: 13

atm_pop: Valence configuration (for local Pseudopot. screening):
 2s( 2.00)                                                            
 2p( 3.00)                                                            
Vna: chval, zval:    5.00000   5.00000

Vna:  Cut-off radius for the neutral-atom potential:   4.972977
comcore: Pseudo-core radius Rcore=  1.554824

atom: _________________________________________________________________________

prinput: Basis input ----------------------------------------------------------

PAO.BasisType split     

%block ChemicalSpeciesLabel
    1    6 C                       # Species index, atomic number, species label
    2    7 N                       # Species index, atomic number, species label
%endblock ChemicalSpeciesLabel

%block PAO.Basis                 # Define Basis set
C                     2                    # Species label, number of l-shells
 n=2   0   2                         # n, l, Nzeta 
   4.633      3.432   
   1.000      1.000   
 n=2   1   2 P   1                   # n, l, Nzeta, Polarization, NzetaPol
   5.659      3.653   
   1.000      1.000   
N                     2                    # Species label, number of l-shells
 n=2   0   2                         # n, l, Nzeta 
   4.071      2.905   
   1.000      1.000   
 n=2   1   2 P   1                   # n, l, Nzeta, Polarization, NzetaPol
   4.973      3.054   
   1.000      1.000   
%endblock PAO.Basis

prinput: ----------------------------------------------------------------------

coor:   Atomic-coordinates input format  =     Cartesian coordinates
coor:                                          (in Angstroms)

siesta: Atomic coordinates (Bohr) and species
siesta:      2.23554   1.32097   0.00000  1        1
siesta:     32.50328  21.48508   0.00000  1        2
siesta:     34.83141  22.82873   0.00000  1        3
siesta:     34.83116  17.45226   0.00000  1        4
siesta:     37.15930  18.79590   0.00000  1        5
siesta:     32.50291  13.41944   0.00000  1        6
siesta:     34.83104  14.76308   0.00000  1        7
siesta:     30.17465   9.38661   0.00000  1        8
siesta:     32.50278  10.73026   0.00000  1        9
siesta:     27.84639   5.35379   0.00000  1       10
siesta:     30.17453   6.69743   0.00000  1       11
siesta:     27.84714  21.48508   0.00000  1       12
siesta:     30.17527  22.82873   0.00000  1       13
siesta:      6.89168   1.32097   0.00000  1       14
siesta:      9.21981   2.66461   0.00000  1       15
siesta:     11.54782   1.32097   0.00000  1       16
siesta:     13.87595   2.66461   0.00000  1       17
siesta:     18.53210   2.66461   0.00000  1       18
siesta:     23.19013   2.66461   0.00000  1       19
siesta:     25.51813   1.32097   0.00000  1       20
siesta:     27.84627   2.66461   0.00000  1       21
siesta:      4.56380   5.35379   0.00000  1       22
siesta:      6.89193   6.69743   0.00000  1       23
siesta:      9.21994   5.35379   0.00000  1       24
siesta:     11.54807   6.69743   0.00000  1       25
siesta:     13.87608   5.35379   0.00000  1       26
siesta:     16.20421   6.69743   0.00000  1       27
siesta:     18.53411   5.35379   0.00000  1       28
siesta:     20.86224   6.69743   0.00000  1       29
siesta:     23.19025   5.35379   0.00000  1       30
siesta:     25.51838   6.69743   0.00000  1       31
siesta:      9.22019  10.73026   0.00000  1       32
siesta:     11.54820   9.38661   0.00000  1       33
siesta:     13.87633  10.73026   0.00000  1       34
siesta:     18.53247  10.73026   0.00000  1       35
siesta:     20.86237   9.38661   0.00000  1       36
siesta:     23.19050  10.73026   0.00000  1       37
siesta:      9.22031  13.41944   0.00000  1       38
siesta:     11.54845  14.76308   0.00000  1       39
siesta:     13.87645  13.41944   0.00000  1       40
siesta:     16.20459  14.76308   0.00000  1       41
siesta:     18.53448  13.41944   0.00000  1       42
siesta:     20.86262  14.76308   0.00000  1       43
siesta:     13.87670  18.79590   0.00000  1       44
siesta:     16.20471  17.45226   0.00000  1       45
siesta:     18.53284  18.79590   0.00000  1       46
siesta:     13.87683  21.48508   0.00000  1       47
siesta:     16.20496  22.82873   0.00000  1       48
siesta:     18.53486  21.48508   0.00000  1       49
siesta:     20.86299  22.82873   0.00000  1       50
siesta:     27.84664  10.73026   0.00000  1       51
siesta:     23.19063  13.41944   0.00000  1       52
siesta:     25.51876  14.76308   0.00000  1       53
siesta:     23.19088  18.79590   0.00000  1       54
siesta:     27.84677  13.41944   0.00000  1       55
siesta:     30.17490  14.76308   0.00000  1       56
siesta:     25.51888  17.45226   0.00000  1       57
siesta:     27.84702  18.79590   0.00000  1       58
siesta:     23.19100  21.48508   0.00000  1       59
siesta:     25.51913  22.82873   0.00000  1       60
siesta:     32.50316  18.79590   0.00000  1       61
siesta:     37.16131  21.48508   0.00000  1       62
siesta:     39.48945  22.82873   0.00000  1       63
siesta:      4.56367   2.66461   0.00000  2       64
siesta:     16.20396   1.32097   0.00000  2       65
siesta:     20.86199   1.32097   0.00000  2       66
siesta:      6.89205   9.38661   0.00000  2       67
siesta:     16.20434   9.38661   0.00000  2       68
siesta:     11.54857  17.45226   0.00000  2       69
siesta:     25.51851   9.38661   0.00000  2       70
siesta:     20.86274  17.45226   0.00000  2       71
siesta:     30.17503  17.45226   0.00000  2       72

siesta: System type = slab      

initatomlists: Number of atoms, orbitals, and projectors:     72   936  1152

siesta: ******************** Simulation parameters ****************************
siesta:
siesta: The following are some of the parameters of the simulation.
siesta: A complete list of the parameters used, including default values,
siesta: can be found in file out.fdf
siesta:
redata: Non-Collinear-spin run           =     F
redata: SpinPolarized (Up/Down) run      =     F
redata: Number of spin components        =     1
redata: Long output                      =     F
redata: Number of Atomic Species         =        2
redata: Charge density info will appear in .RHO file
redata: Write Mulliken Pop.              =     NO
redata: Mesh Cutoff                      =   200.0000  Ry
redata: Net charge of the system         =     0.0000 |e|
redata: Max. number of SCF Iter          =      500
redata: SCF convergence failure will abort job
redata: Performing Pulay mixing using    =    10 iterations
redata: Mix DM in first SCF step ?       =     F
redata: Write Pulay info on disk?        =     F
redata: Discard 1st Pulay DM after  kick =     F
redata: New DM Mixing Weight             =     0.0500
redata: New DM Occupancy tolerance       = 0.000000000001
redata: No kicks to SCF
redata: DM Mixing Weight for Kicks       =     0.5000
redata: DM Tolerance for SCF             =     0.000100
redata: Require Energy convergence for SCF =     F
redata: DM Energy tolerance for SCF      =     0.000100 eV
redata: Require Harris convergence for SCF =     F
redata: DM Harris energy tolerance for SCF =     0.000100 eV
redata: Using Saved Data (generic)   =     F
redata: Use continuation files for DM    =     T
redata: Neglect nonoverlap interactions  =     F
redata: Method of Calculation            =     Diagonalization
redata: Divide and Conquer               =     T
redata: Electronic Temperature           =     0.0019  Ry
redata: Fix the spin of the system       =     F
redata: Dynamics option                  =     Verlet MD run
redata: Initial MD time step             =        1
redata:   Final MD time step             =        1
redata: Length of MD time step           =     1.0000  fs
redata: Initial Temperature of MD run    =     0.0000  K
redata: Perform a MD quench              =     F
redata: ***********************************************************************
Total number of electrons:   297.000000
Total ionic charge:   297.000000

* ProcessorY, Blocksize:    2  24

k-point displ. along   1 input, could be:     0.00    0.50
k-point displ. along   2 input, could be:     0.00    0.50
 Kpoints in:          364 . Kpoints trimmed:          352

siesta: k-grid: Number of k-points =   352
siesta: k-grid: Cutoff (effective) =     5.000 Ang
siesta: k-grid: Supercell and displacements
siesta: k-grid:   26   0   0      0.000
siesta: k-grid:    0  26   0      0.000
siesta: k-grid:    0   0   1      0.000
Naive supercell factors:     2    2    2

superc: Internal auxiliary supercell:     2 x     2 x     2  =       8
superc: Number of atoms, orbitals, and projectors:    576   7488   9216

* Maximum dynamic memory allocated =     6 MB

siesta:                 ==============================
                            Begin MD step =      1
                        ==============================

superc: Internal auxiliary supercell:     2 x     2 x     2  =       8
superc: Number of atoms, orbitals, and projectors:    576   7488   9216

outcell: Unit cell vectors (Ang):
       14.785000    0.000000    0.000000
        7.393000   12.805052    0.000000
        0.000000    0.000000   10.000000

outcell: Cell vector modules (Ang)   :   14.785000   14.786000   10.000000
outcell: Cell angles (23,13,12) (deg):     90.0000     90.0000     60.0000
outcell: Cell volume (Ang**3)        :   1893.2269
New_DM. Step:     1
Initializing Density Matrix...

iodm: Reading Density Matrix from files
 Read DM has different structure. Fixing...

InitMesh: MESH =   120 x   120 x    90 =     1296000
InitMesh: Mesh cutoff (required, used) =   200.000   223.865 Ry

* Maximum dynamic memory allocated =   188 MB

stepf: Fermi-Dirac step function

siesta: Program's energy decomposition (eV):
siesta: Ebs     =     -4229.096355
siesta: Eions   =     19849.732669
siesta: Ena     =      4064.211140
siesta: Ekin    =      8471.524190
siesta: Enl     =      -986.885489
siesta: DEna    =      -308.207438
siesta: DUscf   =       160.945485
siesta: DUext   =         0.000000
siesta: Exc     =     -4275.945315
siesta: eta*DQ  =         0.000000
siesta: Emadel  =         0.000000
siesta: Emeta   =         0.000000
siesta: Emolmec =         0.000000
siesta: Ekinion =         0.000000
siesta: Eharris =    -13064.492777
siesta: Etot    =    -12724.090096
siesta: FreeEng =    -12724.090096

siesta: iscf   Eharris(eV)      E_KS(eV)   FreeEng(eV)   dDmax  Ef(eV)
siesta:    1   -13064.4928   -12724.0901   -12724.0901  0.9938 -2.8417
timer: Routine,Calls,Time,% = IterSCF        1    7954.529  99.85
elaps: Routine,Calls,Wall,% = IterSCF        1     995.919  99.85
siesta:    2   -17829.5477   -11620.3932   -11620.4335 17.4866 -9.5055
siesta:    3   -12910.9893   -12737.0607   -12737.1121  1.1327 -2.8873
siesta:    4   -12820.2779   -12742.9104   -12742.9606  0.7459 -2.9371
siesta:    5   -12768.5976   -12740.6280   -12740.6779  0.5255 -2.8871
siesta:    6   -12750.0153   -12734.8915   -12734.9348  0.4723 -2.9319
siesta:    7   -12742.6956   -12726.2872   -12726.3255  0.3894 -3.0438
siesta:    8   -12742.1205   -12722.3893   -12722.4258  0.3228 -3.1685
siesta:    9   -12742.3329   -12717.6098   -12717.6413  0.2351 -3.4835
siesta:   10   -12741.3836   -12717.7149   -12717.7538  0.1488 -3.5469
siesta:   11   -12740.0696   -12718.8155   -12718.8514  0.0774 -3.5189
siesta:   12   -12740.0348   -12719.9252   -12719.9675  0.0714 -3.5056
siesta:   13   -12739.9534   -12722.8024   -12722.8467  0.0671 -3.4801
siesta:   14   -12739.9292   -12724.3584   -12724.3984  0.0575 -3.4616
siesta:   15   -12739.8713   -12728.5080   -12728.5482  0.0354 -3.4200
siesta:   16   -12739.8395   -12731.2759   -12731.3154  0.0257 -3.3944
siesta:   17   -12739.8225   -12733.6677   -12733.7073  0.0185 -3.3889
siesta:   18   -12739.8150   -12736.2406   -12736.2806  0.0151 -3.3946
siesta:   19   -12739.8115   -12737.8733   -12737.9135  0.0068 -3.4000
siesta:   20   -12739.8108   -12738.7000   -12738.7402  0.0047 -3.4059
siesta:   21   -12739.8095   -12739.2143   -12739.2543  0.0038 -3.4071
siesta:   22   -12739.8085   -12739.4595   -12739.4994  0.0030 -3.4067
siesta:   23   -12739.8082   -12739.6152   -12739.6551  0.0023 -3.4078
siesta:   24   -12739.8082   -12739.6600   -12739.6999  0.0018 -3.4080
siesta:   25   -12739.8082   -12739.6931   -12739.7329  0.0011 -3.4080
siesta:   26   -12739.8081   -12739.6820   -12739.7219  0.0009 -3.4082
siesta:   27   -12739.8081   -12739.6973   -12739.7372  0.0005 -3.4081
siesta:   28   -12739.8081   -12739.7815   -12739.8214  0.0001 -3.4074
siesta:   29   -12739.8081   -12739.7922   -12739.8321  0.0001 -3.4073
siesta:   30   -12739.8081   -12739.8118   -12739.8517  0.0000 -3.4072

siesta: E_KS(eV) =           -12739.8133

siesta: E_KS - E_eggbox =    -12739.8133

siesta: Atomic forces (eV/Ang):
----------------------------------------
   Tot    0.207710   -0.299254    0.000000
----------------------------------------
   Max    1.105969
   Res    0.303148    sqrt( Sum f_i^2 / 3N )
----------------------------------------
   Max    1.105969    constrained

Stress-tensor-Voigt (kbar):        0.72        1.22        0.15       -0.58        0.00        0.00
(Free)E + p*V (eV/cell)   -12740.6727
Target enthalpy (eV/cell)   -12739.8532

siesta: Stress tensor (static) (eV/Ang**3):
         0.000449   -0.000365    0.000000
        -0.000365    0.000759    0.000000
         0.000000    0.000000    0.000091

siesta: Pressure (static):         -0.69355118  kBar

siesta: Stress tensor (total) (eV/Ang**3):
         0.000449   -0.000365    0.000000
        -0.000365    0.000759    0.000000
         0.000000    0.000000    0.000091

siesta: Pressure (total):         -0.69355118  kBar

siesta: Temp_ion =       0.000 K

* Maximum dynamic memory allocated =   204 MB

siesta: Program's energy decomposition (eV):
siesta: Ebs     =     -4186.016652
siesta: Eions   =     19849.732669
siesta: Ena     =      4064.211140
siesta: Ekin    =      8579.729119
siesta: Enl     =     -1058.924173
siesta: DEna    =      -247.235003
siesta: DUscf   =        22.402516
siesta: DUext   =         0.000000
siesta: Exc     =     -4250.264185
siesta: eta*DQ  =         0.000000
siesta: Emadel  =         0.000000
siesta: Emeta   =         0.000000
siesta: Emolmec =         0.000000
siesta: Ekinion =         0.000000
siesta: Eharris =    -12739.808135
siesta: Etot    =    -12739.813256
siesta: FreeEng =    -12739.853160

siesta: Final energy (eV):
siesta:  Band Struct. =   -4186.016652
siesta:       Kinetic =    8579.729119
siesta:       Hartree =   24797.846034
siesta:    Ext. field =       0.000000
siesta:   Exch.-corr. =   -4250.264185
siesta:  Ion-electron =  -57572.778437
siesta:       Ion-ion =   15705.654213
siesta:       Ekinion =       0.000000
siesta:         Total =  -12739.813256

siesta: Atomic forces (eV/Ang):
siesta:      1    0.215787    0.219494    0.000000
siesta:      2   -0.099632    0.186348    0.000000
siesta:      3    0.419234    0.090349    0.000000
siesta:      4    0.034446   -0.515025    0.000000
siesta:      5    0.428065   -0.012579    0.000000
siesta:      6    0.144499    0.144899    0.000000
siesta:      7    0.007211    0.185123    0.000000
siesta:      8    0.107797    0.249368    0.000000
siesta:      9    0.168435   -0.201907    0.000000
siesta:     10   -0.281759    0.931752    0.000000
siesta:     11    0.311826   -1.099259    0.000000
siesta:     12    0.785206    0.058298    0.000000
siesta:     13   -0.533048    0.874698    0.000000
siesta:     14   -0.410585   -0.384294    0.000000
siesta:     15   -0.433064    0.042537    0.000000
siesta:     16    0.389035   -0.148625    0.000000
siesta:     17    0.572307   -0.135094    0.000000
siesta:     18   -0.364034   -0.426023    0.000000
siesta:     19   -0.279337   -0.025684    0.000000
siesta:     20   -0.513770   -0.651920    0.000000
siesta:     21    0.476205   -0.014469    0.000000
siesta:     22   -0.135270    0.140517    0.000000
siesta:     23   -0.172908    0.097247    0.000000
siesta:     24    0.323330    0.892907    0.000000
siesta:     25   -0.347797   -0.952320    0.000000
siesta:     26    0.309970    0.245590    0.000000
siesta:     27   -0.118205    0.778055    0.000000
siesta:     28    0.005001   -0.239869    0.000000
siesta:     29    0.022187   -0.172939    0.000000
siesta:     30   -0.274544    0.022021    0.000000
siesta:     31    0.403725    0.228811    0.000000
siesta:     32   -0.090336   -0.365823    0.000000
siesta:     33    0.072597    0.353049    0.000000
siesta:     34    0.132390   -0.407654    0.000000
siesta:     35   -0.257272   -0.020119    0.000000
siesta:     36    0.017691   -0.250670    0.000000
siesta:     37    0.161865   -0.213867    0.000000
siesta:     38   -0.182696    0.243227    0.000000
siesta:     39    0.016557   -0.011263    0.000000
siesta:     40    0.239399    0.378945    0.000000
siesta:     41    0.028327    0.078676    0.000000
siesta:     42   -0.290006    0.071446    0.000000
siesta:     43   -0.020574    0.366968    0.000000
siesta:     44   -0.225396   -0.291519    0.000000
siesta:     45   -0.308791   -0.440972    0.000000
siesta:     46    0.685708    0.425307    0.000000
siesta:     47   -0.884984   -0.055165    0.000000
siesta:     48    0.498400    0.332555    0.000000
siesta:     49    0.214288   -0.963881    0.000000
siesta:     50   -0.338984    1.105969    0.000000
siesta:     51   -0.074292   -0.393693    0.000000
siesta:     52    0.255163    0.189839    0.000000
siesta:     53   -0.035584   -0.013705    0.000000
siesta:     54   -0.561930   -0.051192    0.000000
siesta:     55   -0.184202    0.226727    0.000000
siesta:     56    0.053886    0.156468    0.000000
siesta:     57    0.060349   -0.205990    0.000000
siesta:     58    0.358418    0.029853    0.000000
siesta:     59    0.132958   -0.216828    0.000000
siesta:     60   -0.454517   -0.409249    0.000000
siesta:     61   -0.428572    0.233088    0.000000
siesta:     62   -0.401911   -0.015956    0.000000
siesta:     63    0.632349    0.267857    0.000000
siesta:     64    0.166021    0.025567    0.000000
siesta:     65    0.834016   -0.424032    0.000000
siesta:     66   -0.591439   -0.111537    0.000000
siesta:     67   -0.158453    0.070514    0.000000
siesta:     68    0.106853   -0.171313    0.000000
siesta:     69   -0.049210    0.179933    0.000000
siesta:     70   -0.145976    0.090137    0.000000
siesta:     71   -0.051829   -0.271418    0.000000
siesta:     72    0.117116   -0.227540    0.000000
siesta: ----------------------------------------
siesta:    Tot    0.207710   -0.299254    0.000000

siesta: Stress tensor (static) (eV/Ang**3):
siesta:     0.000449   -0.000365    0.000000
siesta:    -0.000365    0.000759    0.000000
siesta:     0.000000    0.000000    0.000091

siesta: Cell volume =       1893.226895 Ang**3

siesta: Pressure (static):
siesta:                Solid            Molecule  Units
siesta:          -0.00000471         -0.00005677  Ry/Bohr**3
siesta:          -0.00043288         -0.00521223  eV/Ang**3
siesta:          -0.69355118         -8.35100843  kBar
(Free)E+ p_basis*V_orbitals  =      -12710.402214
(Free)Eharris+ p_basis*V_orbitals  =      -12710.398567

siesta: Electric dipole (a.u.)  =    0.000000    0.000000    0.000000
siesta: Electric dipole (Debye) =    0.000000    0.000000    0.000000

* Maximum dynamic memory allocated : Node    0 =   204 MB
* Maximum dynamic memory allocated : Node    1 =    75 MB
* Maximum dynamic memory allocated : Node    2 =    76 MB
* Maximum dynamic memory allocated : Node    3 =   193 MB
* Maximum dynamic memory allocated : Node    4 =   202 MB
* Maximum dynamic memory allocated : Node    5 =    74 MB
* Maximum dynamic memory allocated : Node    6 =    76 MB
* Maximum dynamic memory allocated : Node    7 =   187 MB

* Maximum memory occured during matrixMtoO                    

timer: CPU execution times:
timer:  Routine       Calls   Time/call    Tot.time        %
timer:  siesta            1  236319.075  236319.075   100.00
timer:  Setup             1       3.093       3.093     0.00
timer:  bands             1       0.010       0.010     0.00
timer:  writewave         1       0.017       0.017     0.00
timer:  KSV_init          1       0.001       0.001     0.00
timer:  IterMD            1  236307.817  236307.817   100.00
timer:  hsparse           1       0.271       0.271     0.00
timer:  overlap           1       6.347       6.347     0.00
timer:  IterSCF          30    7871.074  236132.209    99.92
timer:  kinefsm           2       3.263       6.525     0.00
timer:  nlefsm            2      18.861      37.723     0.02
timer:  DHSCF            31      90.251    2797.776     1.18
timer:  DHSCF1            1       0.805       0.805     0.00
timer:  DHSCF2            1      34.641      34.641     0.01
timer:  REORD           250       0.014       3.464     0.00
timer:  POISON           32       3.705     118.550     0.05
timer:  DHSCF3           31      88.015    2728.480     1.15
timer:  rhoofd           31      16.306     505.494     0.21
timer:  cellXC           31       3.539     109.714     0.05
timer:  vmat             31      44.468    1378.503     0.58
timer:  MolMec            2       0.000       0.000     0.00
timer:  diagon           30    7779.577  233387.312    98.76
timer:  c-eigval      10560       7.204   76079.379    32.19
timer:  c-buildHS     10560       0.207    2186.931     0.93
timer:  cdiag         21120       7.378  155821.557    65.94
timer:  cdiag1        21120       0.462    9758.532     4.13
timer:  cdiag2        21120       1.982   41855.066    17.71
timer:  cdiag3        21120       4.153   87704.350    37.11
timer:  cdiag4        21120       0.244    5158.918     2.18
timer:  c-eigvec      10560       7.845   82848.071    35.06
timer:  c-buildD      10560       7.039   74335.684    31.46
timer:  DHSCF4            1      31.113      31.113     0.01
timer:  dfscf             1      29.266      29.266     0.01
timer:  overfsm           1       0.379       0.379     0.00
timer:  optical           1       7.139       7.139     0.00
  

elaps: ELAPSED times:
elaps:  Routine       Calls   Time/call    Tot.time        %
elaps:  siesta            1   29585.336   29585.336   100.00
elaps:  Setup             1       0.385       0.385     0.00
elaps:  bands             1       0.001       0.001     0.00
elaps:  writewave         1       0.002       0.002     0.00
elaps:  KSV_init          1       0.000       0.000     0.00
elaps:  IterMD            1   29583.929   29583.929   100.00
elaps:  hsparse           1       0.034       0.034     0.00
elaps:  overlap           1       0.523       0.523     0.00
elaps:  IterSCF          30     985.399   29561.957    99.92
elaps:  kinefsm           2       0.276       0.552     0.00
elaps:  nlefsm            2       2.481       4.962     0.02
elaps:  DHSCF            31      11.396     353.261     1.19
elaps:  DHSCF1            1       0.106       0.106     0.00
elaps:  DHSCF2            1       4.326       4.326     0.01
elaps:  REORD           250       0.002       0.436     0.00
elaps:  POISON           32       0.466      14.903     0.05
elaps:  DHSCF3           31      11.012     341.386     1.15
elaps:  rhoofd           31       3.547     109.958     0.37
elaps:  cellXC           31       0.441      13.682     0.05
elaps:  vmat             31       5.564     172.469     0.58
elaps:  MolMec            2       0.000       0.000     0.00
elaps:  diagon           30     973.983   29219.479    98.76
elaps:  c-eigval      10560       0.902    9520.044    32.18
elaps:  c-buildHS     10560       0.027     289.004     0.98
elaps:  cdiag         21120       0.907   19154.326    64.74
elaps:  cdiag1        21120       0.057    1209.348     4.09
elaps:  cdiag2        21120       0.248    5236.958    17.70
elaps:  cdiag3        21120       0.520   10990.696    37.15
elaps:  cdiag4        21120       0.033     696.204     2.35
elaps:  c-eigvec      10560       0.952   10054.568    33.98
elaps:  c-buildD      10560       0.912    9627.176    32.54
elaps:  DHSCF4            1       7.060       7.060     0.02
elaps:  dfscf             1       6.657       6.657     0.02
elaps:  overfsm           1       0.048       0.048     0.00
elaps:  optical           1       0.000       0.000     0.00
  
>> End of run:  30-NOV-2015   8:39:02
