Siesta Version:                                        siesta-3.2-pl-3
Architecture  : x86_64-unknown-linux-gnu--unknown
Compiler flags: mpiifort -g -O2 -fPIC -xSSE4.1 -fp-model source -shared-intel 
PARALLEL version

* Running on    8 nodes in parallel
>> Start of run:   6-DEC-2015  15:21:13

                           ***********************       
                           *  WELCOME TO SIESTA  *       
                           ***********************       

reinit: Reading from standard input
************************** Dump of input data file ****************************
#(1) General system descriptors
SystemName            GRP_doping    # Descriptive name of the system
SystemLabel           GRP_doping    # Short name for naming files
%include STRUCT.fdf
%include KPT.fdf
%include BASIS.fdf
#%include TS.fdf # for transiesta calculation
#(4) DFT, Grid, SCF
XC.functional         GGA           # LDA or GGA (default = LDA)
XC.authors            PBE           # CA (Ceperley-Aldr) = PZ
                                    #    (Perdew-Zunger) - LDA - Default
                                    # PW92 (Perdew-Wang-92) - LDA
                                    # PBE (Perdew-Burke-Ernzerhof) - GGA
MeshCutoff            200.000000    Ry      # Default: 50.0 Ry ~ 0.444 Bohr
                                    #         100.0 Ry ~ 0.314 Bohr
MaxSCFIterations      500           # Default: 50
DM.MixingWeight       0.05          # Default: 0.25
DM.NumberPulay        10            # Default: 0
DM.PulayOnFile        F             # SystemLabel.P1, SystemLabel.P2
DM.Tolerance          1.d-4         # Default: 1.d-4
DM.UseSaveDM          .true.        # because of the bug
SCFMustConverge       .true.
NeglNonOverlapInt     F             # Default: F
#(5) Eigenvalue problem: order-N or diagonalization
SolutionMethod        Diagon        # or Transiesta
ElectronicTemperature 300.0 K       # Default: 300.0 K
#(6) Molecular dynamics and relaxations
#MD.TypeOfRun          CG            # Type of dynamics:
#MD.VariableCell       F
#MD.NumCGsteps         0           # 0 for single-point / 100 for gopt
#MD.MaxCGDispl         0.2 Bohr      # Default: 0.2 Bohr
#MD.MaxForceTol        0.02 eV/Ang   # Default: 0.04 eV/Ang
#MD.MaxStressTol       1.0 GPa       # Default: 1.0 GPa
# Geometry Constraints
#%block GeometryConstraints
#	position from 1 to 44
#%endblock GeometryConstraints
************************** End of input data file *****************************

reinit: -----------------------------------------------------------------------
reinit: System Name: GRP_doping
reinit: -----------------------------------------------------------------------
reinit: System Label: GRP_doping                                                  
reinit: -----------------------------------------------------------------------

initatom: Reading input for the pseudopotentials and atomic orbitals ----------
 Species number:            1  Label: C Atomic number:           6
 Species number:            2  Label: N Atomic number:           7
Ground state valence configuration:   2s02  2p02
Reading pseudopotential information in formatted form from C.psf

Valence configuration for pseudopotential generation:
2s( 2.00) rc: 1.54
2p( 2.00) rc: 1.54
3d( 0.00) rc: 1.54
4f( 0.00) rc: 1.54
Ground state valence configuration:   2s02  2p03
Reading pseudopotential information in formatted form from N.psf

Valence configuration for pseudopotential generation:
2s( 2.00) rc: 1.48
2p( 3.00) rc: 1.48
3d( 0.00) rc: 1.48
4f( 0.00) rc: 1.48
For C, standard SIESTA heuristics set lmxkb to 3
 (one more than the basis l, including polarization orbitals).
Use PS.lmax or PS.KBprojectors blocks to override.
For N, standard SIESTA heuristics set lmxkb to 3
 (one more than the basis l, including polarization orbitals).
Use PS.lmax or PS.KBprojectors blocks to override.

<basis_specs>
===============================================================================
C                    Z=   6    Mass=  12.010        Charge= 0.17977+309
Lmxo=1 Lmxkb= 3    BasisType=split      Semic=F
L=0  Nsemic=0  Cnfigmx=2
          n=1  nzeta=2  polorb=0
            splnorm:   0.15000    
               vcte:    0.0000    
               rinn:    0.0000    
                rcs:    0.0000      0.0000    
            lambdas:    1.0000      1.0000    
L=1  Nsemic=0  Cnfigmx=2
          n=1  nzeta=2  polorb=1
            splnorm:   0.15000    
               vcte:    0.0000    
               rinn:    0.0000    
                rcs:    0.0000      0.0000    
            lambdas:    1.0000      1.0000    
-------------------------------------------------------------------------------
L=0  Nkbl=1  erefs: 0.17977+309
L=1  Nkbl=1  erefs: 0.17977+309
L=2  Nkbl=1  erefs: 0.17977+309
L=3  Nkbl=1  erefs: 0.17977+309
===============================================================================
</basis_specs>

atom: Called for C                     (Z =   6)

read_vps: Pseudopotential generation method:
read_vps: ATM3      Troullier-Martins                       
Total valence charge:    4.00000

read_vps: Pseudopotential includes a core correction:
read_vps: Pseudo-core for xc-correction

xc_check: Exchange-correlation functional:
xc_check: GGA Perdew, Burke & Ernzerhof 1996
V l=0 = -2*Zval/r beyond r=  1.5227
V l=1 = -2*Zval/r beyond r=  1.5227
V l=2 = -2*Zval/r beyond r=  1.5227
V l=3 = -2*Zval/r beyond r=  1.5038
All V_l potentials equal beyond r=  1.5227
This should be close to max(r_c) in ps generation
All pots = -2*Zval/r beyond r=  1.5227

VLOCAL1: 99.0% of the norm of Vloc inside     18.722 Ry
VLOCAL1: 99.9% of the norm of Vloc inside     42.668 Ry
atom: Maximum radius for 4*pi*r*r*local-pseudopot. charge    1.83678
atom: Maximum radius for r*vlocal+2*Zval:    1.58088
GHOST: No ghost state for L =  0
GHOST: No ghost state for L =  1
GHOST: No ghost state for L =  2
GHOST: No ghost state for L =  3

KBgen: Kleinman-Bylander projectors: 
   l= 0   rc=  1.704034   el= -1.009801   Ekb=  5.335044   kbcos=  0.316824
   l= 1   rc=  1.704034   el= -0.388707   Ekb= -3.785862   kbcos= -0.366464
   l= 2   rc=  1.791422   el=  0.001971   Ekb= -0.970471   kbcos= -0.009212
   l= 3   rc=  1.859892   el=  0.003065   Ekb= -0.399525   kbcos= -0.001223

KBgen: Total number of  Kleinman-Bylander projectors:   16
atom: -------------------------------------------------------------------------

atom: SANKEY-TYPE ORBITALS:
atom: Selected multiple-zeta basis: split     

SPLIT: Orbitals with angular momentum L= 0

SPLIT: Basis orbitals for state 2s

SPLIT: PAO cut-off radius determined from an
SPLIT: energy shift=  0.007350 Ry

   izeta = 1
                 lambda =    1.000000
                     rc =    4.632753
                 energy =   -1.002270
                kinetic =    0.855760
    potential(screened) =   -1.858031
       potential(ionic) =   -5.417575

   izeta = 2
                 rmatch =    3.431921
              splitnorm =    0.150000
                 energy =   -0.867111
                kinetic =    1.300804
    potential(screened) =   -2.167915
       potential(ionic) =   -5.962684

SPLIT: Orbitals with angular momentum L= 1

SPLIT: Basis orbitals for state 2p

SPLIT: PAO cut-off radius determined from an
SPLIT: energy shift=  0.007350 Ry

   izeta = 1
                 lambda =    1.000000
                     rc =    5.658549
                 energy =   -0.381140
                kinetic =    2.399701
    potential(screened) =   -2.780841
       potential(ionic) =   -6.206085

   izeta = 2
                 rmatch =    3.653288
              splitnorm =    0.150000
                 energy =   -0.249149
                kinetic =    3.542762
    potential(screened) =   -3.791911
       potential(ionic) =   -7.581078

POLgen: Perturbative polarization orbital with L=  2

POLgen: Polarization orbital for state 2p

   izeta = 1
                     rc =    5.658549
                 energy =    1.109913
                kinetic =    2.304789
    potential(screened) =   -1.194876
       potential(ionic) =   -4.013592
atom: Total number of Sankey-type orbitals: 13

atm_pop: Valence configuration (for local Pseudopot. screening):
 2s( 2.00)                                                            
 2p( 2.00)                                                            
Vna: chval, zval:    4.00000   4.00000

Vna:  Cut-off radius for the neutral-atom potential:   5.658549
comcore: Pseudo-core radius Rcore=  1.791422

atom: _________________________________________________________________________

<basis_specs>
===============================================================================
N                    Z=   7    Mass=  14.010        Charge= 0.17977+309
Lmxo=1 Lmxkb= 3    BasisType=split      Semic=F
L=0  Nsemic=0  Cnfigmx=2
          n=1  nzeta=2  polorb=0
            splnorm:   0.15000    
               vcte:    0.0000    
               rinn:    0.0000    
                rcs:    0.0000      0.0000    
            lambdas:    1.0000      1.0000    
L=1  Nsemic=0  Cnfigmx=2
          n=1  nzeta=2  polorb=1
            splnorm:   0.15000    
               vcte:    0.0000    
               rinn:    0.0000    
                rcs:    0.0000      0.0000    
            lambdas:    1.0000      1.0000    
-------------------------------------------------------------------------------
L=0  Nkbl=1  erefs: 0.17977+309
L=1  Nkbl=1  erefs: 0.17977+309
L=2  Nkbl=1  erefs: 0.17977+309
L=3  Nkbl=1  erefs: 0.17977+309
===============================================================================
</basis_specs>

atom: Called for N                     (Z =   7)

read_vps: Pseudopotential generation method:
read_vps: ATM3      Troullier-Martins                       
Total valence charge:    5.00000

read_vps: Pseudopotential includes a core correction:
read_vps: Pseudo-core for xc-correction

xc_check: Exchange-correlation functional:
xc_check: GGA Perdew, Burke & Ernzerhof 1996
V l=0 = -2*Zval/r beyond r=  1.4606
V l=1 = -2*Zval/r beyond r=  1.4606
V l=2 = -2*Zval/r beyond r=  1.4606
V l=3 = -2*Zval/r beyond r=  1.4606
All V_l potentials equal beyond r=  1.4606
This should be close to max(r_c) in ps generation
All pots = -2*Zval/r beyond r=  1.4606

VLOCAL1: 99.0% of the norm of Vloc inside     20.347 Ry
VLOCAL1: 99.9% of the norm of Vloc inside     46.372 Ry
atom: Maximum radius for 4*pi*r*r*local-pseudopot. charge    1.76189
atom: Maximum radius for r*vlocal+2*Zval:    1.53550
GHOST: No ghost state for L =  0
GHOST: No ghost state for L =  1
GHOST: No ghost state for L =  2
GHOST: No ghost state for L =  3

KBgen: Kleinman-Bylander projectors: 
   l= 0   rc=  1.634559   el= -1.363963   Ekb=  5.296955   kbcos=  0.335621
   l= 1   rc=  1.614250   el= -0.521451   Ekb= -5.259161   kbcos= -0.433408
   l= 2   rc=  1.718383   el=  0.001991   Ekb= -1.271464   kbcos= -0.007566
   l= 3   rc=  1.761893   el=  0.003093   Ekb= -0.494769   kbcos= -0.001015

KBgen: Total number of  Kleinman-Bylander projectors:   16
atom: -------------------------------------------------------------------------

atom: SANKEY-TYPE ORBITALS:
atom: Selected multiple-zeta basis: split     

SPLIT: Orbitals with angular momentum L= 0

SPLIT: Basis orbitals for state 2s

SPLIT: PAO cut-off radius determined from an
SPLIT: energy shift=  0.007350 Ry

   izeta = 1
                 lambda =    1.000000
                     rc =    4.071465
                 energy =   -1.356470
                kinetic =    1.176977
    potential(screened) =   -2.533447
       potential(ionic) =   -8.057990

   izeta = 2
                 rmatch =    2.905100
              splitnorm =    0.150000
                 energy =   -1.158343
                kinetic =    1.813009
    potential(screened) =   -2.971352
       potential(ionic) =   -8.901931

SPLIT: Orbitals with angular momentum L= 1

SPLIT: Basis orbitals for state 2p

SPLIT: PAO cut-off radius determined from an
SPLIT: energy shift=  0.007350 Ry

   izeta = 1
                 lambda =    1.000000
                     rc =    4.972977
                 energy =   -0.513884
                kinetic =    3.441732
    potential(screened) =   -3.955616
       potential(ionic) =   -9.287901

   izeta = 2
                 rmatch =    3.054066
              splitnorm =    0.150000
                 energy =   -0.318226
                kinetic =    5.125348
    potential(screened) =   -5.443573
       potential(ionic) =  -11.380999

POLgen: Perturbative polarization orbital with L=  2

POLgen: Polarization orbital for state 2p

   izeta = 1
                     rc =    4.972977
                 energy =    1.607437
                kinetic =    3.268125
    potential(screened) =   -1.660688
       potential(ionic) =   -5.973652
atom: Total number of Sankey-type orbitals: 13

atm_pop: Valence configuration (for local Pseudopot. screening):
 2s( 2.00)                                                            
 2p( 3.00)                                                            
Vna: chval, zval:    5.00000   5.00000

Vna:  Cut-off radius for the neutral-atom potential:   4.972977
comcore: Pseudo-core radius Rcore=  1.554824

atom: _________________________________________________________________________

prinput: Basis input ----------------------------------------------------------

PAO.BasisType split     

%block ChemicalSpeciesLabel
    1    6 C                       # Species index, atomic number, species label
    2    7 N                       # Species index, atomic number, species label
%endblock ChemicalSpeciesLabel

%block PAO.Basis                 # Define Basis set
C                     2                    # Species label, number of l-shells
 n=2   0   2                         # n, l, Nzeta 
   4.633      3.432   
   1.000      1.000   
 n=2   1   2 P   1                   # n, l, Nzeta, Polarization, NzetaPol
   5.659      3.653   
   1.000      1.000   
N                     2                    # Species label, number of l-shells
 n=2   0   2                         # n, l, Nzeta 
   4.071      2.905   
   1.000      1.000   
 n=2   1   2 P   1                   # n, l, Nzeta, Polarization, NzetaPol
   4.973      3.054   
   1.000      1.000   
%endblock PAO.Basis

prinput: ----------------------------------------------------------------------

coor:   Atomic-coordinates input format  =     Cartesian coordinates
coor:                                          (in Angstroms)

siesta: Atomic coordinates (Bohr) and species
siesta:      2.23554   1.32097   0.00000  1        1
siesta:      4.56367   2.66461   0.00000  1        2
siesta:     32.50328  21.48508   0.00000  1        3
siesta:     34.83141  22.82873   0.00000  1        4
siesta:     34.83116  17.45226   0.00000  1        5
siesta:     37.15930  18.79590   0.00000  1        6
siesta:     32.50291  13.41944   0.00000  1        7
siesta:     34.83104  14.76308   0.00000  1        8
siesta:     30.17465   9.38661   0.00000  1        9
siesta:     32.50278  10.73026   0.00000  1       10
siesta:     27.84639   5.35379   0.00000  1       11
siesta:     30.17453   6.69743   0.00000  1       12
siesta:     27.84714  21.48508   0.00000  1       13
siesta:     30.17527  22.82873   0.00000  1       14
siesta:      6.89168   1.32097   0.00000  1       15
siesta:      9.21981   2.66461   0.00000  1       16
siesta:     11.54782   1.32097   0.00000  1       17
siesta:     13.87595   2.66461   0.00000  1       18
siesta:     16.20396   1.32097   0.00000  1       19
siesta:     18.53210   2.66461   0.00000  1       20
siesta:     20.86199   1.32097   0.00000  1       21
siesta:     23.19013   2.66461   0.00000  1       22
siesta:     25.51813   1.32097   0.00000  1       23
siesta:     27.84627   2.66461   0.00000  1       24
siesta:      4.56380   5.35379   0.00000  1       25
siesta:      6.89193   6.69743   0.00000  1       26
siesta:      9.21994   5.35379   0.00000  1       27
siesta:     11.54807   6.69743   0.00000  1       28
siesta:     13.87608   5.35379   0.00000  1       29
siesta:     16.20421   6.69743   0.00000  1       30
siesta:     18.53411   5.35379   0.00000  1       31
siesta:      6.89205   9.38661   0.00000  1       32
siesta:      9.22019  10.73026   0.00000  1       33
siesta:     11.54820   9.38661   0.00000  1       34
siesta:     13.87633  10.73026   0.00000  1       35
siesta:     16.20434   9.38661   0.00000  1       36
siesta:     23.19050  10.73026   0.00000  1       37
siesta:      9.22031  13.41944   0.00000  1       38
siesta:     11.54845  14.76308   0.00000  1       39
siesta:     13.87645  13.41944   0.00000  1       40
siesta:     20.86262  14.76308   0.00000  1       41
siesta:     11.54857  17.45226   0.00000  1       42
siesta:     13.87670  18.79590   0.00000  1       43
siesta:     13.87683  21.48508   0.00000  1       44
siesta:     16.20496  22.82873   0.00000  1       45
siesta:     18.53486  21.48508   0.00000  1       46
siesta:     20.86299  22.82873   0.00000  1       47
siesta:     23.19063  13.41944   0.00000  1       48
siesta:     25.51876  14.76308   0.00000  1       49
siesta:     23.19100  21.48508   0.00000  1       50
siesta:     25.51913  22.82873   0.00000  1       51
siesta:     32.50316  18.79590   0.00000  1       52
siesta:     37.16131  21.48508   0.00000  1       53
siesta:     39.48945  22.82873   0.00000  1       54
siesta:     20.86224   6.69743   0.00000  2       55
siesta:     23.19025   5.35379   0.00000  2       56
siesta:     25.51838   6.69743   0.00000  2       57
siesta:     18.53247  10.73026   0.00000  2       58
siesta:     20.86237   9.38661   0.00000  2       59
siesta:     16.20459  14.76308   0.00000  2       60
siesta:     18.53448  13.41944   0.00000  2       61
siesta:     16.20471  17.45226   0.00000  2       62
siesta:     18.53284  18.79590   0.00000  2       63
siesta:     25.51851   9.38661   0.00000  2       64
siesta:     27.84664  10.73026   0.00000  2       65
siesta:     20.86274  17.45226   0.00000  2       66
siesta:     23.19088  18.79590   0.00000  2       67
siesta:     27.84677  13.41944   0.00000  2       68
siesta:     30.17490  14.76308   0.00000  2       69
siesta:     25.51888  17.45226   0.00000  2       70
siesta:     27.84702  18.79590   0.00000  2       71
siesta:     30.17503  17.45226   0.00000  2       72

siesta: System type = slab      

initatomlists: Number of atoms, orbitals, and projectors:     72   936  1152

siesta: ******************** Simulation parameters ****************************
siesta:
siesta: The following are some of the parameters of the simulation.
siesta: A complete list of the parameters used, including default values,
siesta: can be found in file out.fdf
siesta:
redata: Non-Collinear-spin run           =     F
redata: SpinPolarized (Up/Down) run      =     F
redata: Number of spin components        =     1
redata: Long output                      =     F
redata: Number of Atomic Species         =        2
redata: Charge density info will appear in .RHO file
redata: Write Mulliken Pop.              =     NO
redata: Mesh Cutoff                      =   200.0000  Ry
redata: Net charge of the system         =     0.0000 |e|
redata: Max. number of SCF Iter          =      500
redata: SCF convergence failure will abort job
redata: Performing Pulay mixing using    =    10 iterations
redata: Mix DM in first SCF step ?       =     F
redata: Write Pulay info on disk?        =     F
redata: Discard 1st Pulay DM after  kick =     F
redata: New DM Mixing Weight             =     0.0500
redata: New DM Occupancy tolerance       = 0.000000000001
redata: No kicks to SCF
redata: DM Mixing Weight for Kicks       =     0.5000
redata: DM Tolerance for SCF             =     0.000100
redata: Require Energy convergence for SCF =     F
redata: DM Energy tolerance for SCF      =     0.000100 eV
redata: Require Harris convergence for SCF =     F
redata: DM Harris energy tolerance for SCF =     0.000100 eV
redata: Using Saved Data (generic)   =     F
redata: Use continuation files for DM    =     T
redata: Neglect nonoverlap interactions  =     F
redata: Method of Calculation            =     Diagonalization
redata: Divide and Conquer               =     T
redata: Electronic Temperature           =     0.0019  Ry
redata: Fix the spin of the system       =     F
redata: Dynamics option                  =     Verlet MD run
redata: Initial MD time step             =        1
redata:   Final MD time step             =        1
redata: Length of MD time step           =     1.0000  fs
redata: Initial Temperature of MD run    =     0.0000  K
redata: Perform a MD quench              =     F
redata: ***********************************************************************
Total number of electrons:   306.000000
Total ionic charge:   306.000000

* ProcessorY, Blocksize:    2  24

k-point displ. along   1 input, could be:     0.00    0.50
k-point displ. along   2 input, could be:     0.00    0.50
 Kpoints in:          364 . Kpoints trimmed:          352

siesta: k-grid: Number of k-points =   352
siesta: k-grid: Cutoff (effective) =     5.000 Ang
siesta: k-grid: Supercell and displacements
siesta: k-grid:   26   0   0      0.000
siesta: k-grid:    0  26   0      0.000
siesta: k-grid:    0   0   1      0.000
Naive supercell factors:     2    2    2

superc: Internal auxiliary supercell:     2 x     2 x     2  =       8
superc: Number of atoms, orbitals, and projectors:    576   7488   9216

* Maximum dynamic memory allocated =     6 MB

siesta:                 ==============================
                            Begin MD step =      1
                        ==============================

superc: Internal auxiliary supercell:     2 x     2 x     2  =       8
superc: Number of atoms, orbitals, and projectors:    576   7488   9216

outcell: Unit cell vectors (Ang):
       14.785000    0.000000    0.000000
        7.393000   12.805052    0.000000
        0.000000    0.000000   10.000000

outcell: Cell vector modules (Ang)   :   14.785000   14.786000   10.000000
outcell: Cell angles (23,13,12) (deg):     90.0000     90.0000     60.0000
outcell: Cell volume (Ang**3)        :   1893.2269
New_DM. Step:     1
Initializing Density Matrix...

InitMesh: MESH =   120 x   120 x    90 =     1296000
InitMesh: Mesh cutoff (required, used) =   200.000   223.865 Ry

* Maximum dynamic memory allocated =   183 MB

stepf: Fermi-Dirac step function

siesta: Program's energy decomposition (eV):
siesta: Ebs     =     -4802.942800
siesta: Eions   =     21296.454266
siesta: Ena     =      4153.265038
siesta: Ekin    =      7888.785163
siesta: Enl     =      -279.151403
siesta: DEna    =        -0.000012
siesta: DUscf   =         0.000000
siesta: DUext   =         0.000000
siesta: Exc     =     -4382.828471
siesta: eta*DQ  =         0.000000
siesta: Emadel  =         0.000000
siesta: Emeta   =         0.000000
siesta: Emolmec =         0.000000
siesta: Ekinion =         0.000000
siesta: Eharris =    -13796.378261
siesta: Etot    =    -13916.383951
siesta: FreeEng =    -13916.383951

siesta: iscf   Eharris(eV)      E_KS(eV)   FreeEng(eV)   dDmax  Ef(eV)
siesta:    1   -13796.3783   -13916.3840   -13916.3840  1.9248 -4.3770
timer: Routine,Calls,Time,% = IterSCF        1   10569.820  99.89
elaps: Routine,Calls,Wall,% = IterSCF        1    1410.446  99.89
siesta:    2   -14663.9682   -13683.9335   -13683.9656  9.1616 -3.8472
siesta:    3   -13780.4378   -13889.2301   -13889.2594  1.6153 -4.1275
siesta:    4   -13795.9577   -13784.1645   -13784.1766  0.5947 -4.4877
siesta:    5   -13788.3531   -13765.2861   -13765.2904  0.4218 -4.2494
siesta:    6   -13773.4352   -13754.7002   -13754.7332  0.2930 -3.3594
siesta:    7   -13772.6209   -13746.4568   -13746.5403  0.2675 -2.9245
siesta:    8   -13772.5091   -13745.9345   -13745.9360  0.2398 -2.9220
siesta:    9   -13772.4249   -13748.8159   -13748.8229  0.1786 -2.9827
siesta:   10   -13771.5249   -13751.9345   -13751.9592  0.1488 -3.0274
siesta:   11   -13771.4122   -13754.1162   -13754.1194  0.1279 -3.0780
siesta:   12   -13771.1843   -13758.5243   -13758.5279  0.0847 -3.1826
siesta:   13   -13771.0841   -13764.7603   -13764.7634  0.0373 -3.3041
siesta:   14   -13771.0959   -13767.3319   -13767.3649  0.0217 -3.2859
siesta:   15   -13771.0416   -13770.2175   -13770.2550  0.0160 -3.2896
siesta:   16   -13771.0360   -13770.7179   -13770.7548  0.0095 -3.2884
siesta:   17   -13771.0297   -13770.8960   -13770.9281  0.0105 -3.2926
siesta:   18   -13771.0307   -13770.8376   -13770.8734  0.0042 -3.2802
siesta:   19   -13771.0271   -13770.8875   -13770.9195  0.0059 -3.2887
siesta:   20   -13771.0290   -13770.7576   -13770.7934  0.0044 -3.2834
siesta:   21   -13771.0285   -13770.7774   -13770.8110  0.0047 -3.2847
siesta:   22   -13771.0312   -13770.9333   -13770.9674  0.0009 -3.2802
siesta:   23   -13771.0289   -13771.0303   -13771.0613  0.0011 -3.2856
siesta:   24   -13771.0299   -13771.0373   -13771.0705  0.0003 -3.2835
siesta:   25   -13771.0299   -13771.0337   -13771.0657  0.0003 -3.2835
siesta:   26   -13771.0298   -13771.0034   -13771.0355  0.0002 -3.2832
siesta:   27   -13771.0298   -13771.0039   -13771.0361  0.0002 -3.2831
siesta:   28   -13771.0297   -13771.0237   -13771.0559  0.0001 -3.2836

siesta: E_KS(eV) =           -13771.0242

siesta: E_KS - E_eggbox =    -13771.0242

siesta: Atomic forces (eV/Ang):
----------------------------------------
   Tot    0.410070   -0.050797    0.000000
----------------------------------------
   Max    2.833628
   Res    0.689616    sqrt( Sum f_i^2 / 3N )
----------------------------------------
   Max    2.833628    constrained

Stress-tensor-Voigt (kbar):       10.11       10.71        0.19       -0.30        0.00        0.00
(Free)E + p*V (eV/cell)   -13779.3314
Target enthalpy (eV/cell)   -13771.0565

siesta: Stress tensor (static) (eV/Ang**3):
         0.006313   -0.000189    0.000000
        -0.000189    0.006682    0.000000
         0.000000    0.000000    0.000118

siesta: Pressure (static):         -7.00282947  kBar

siesta: Stress tensor (total) (eV/Ang**3):
         0.006313   -0.000189    0.000000
        -0.000189    0.006682    0.000000
         0.000000    0.000000    0.000118

siesta: Pressure (total):         -7.00282947  kBar

siesta: Temp_ion =       0.000 K

* Maximum dynamic memory allocated =   199 MB

siesta: Program's energy decomposition (eV):
siesta: Ebs     =     -4421.021099
siesta: Eions   =     21296.454266
siesta: Ena     =      4153.265038
siesta: Ekin    =      9343.433754
siesta: Enl     =     -1317.607611
siesta: DEna    =      -215.804544
siesta: DUscf   =        26.341232
siesta: DUext   =         0.000000
siesta: Exc     =     -4464.197810
siesta: eta*DQ  =         0.000000
siesta: Emadel  =         0.000000
siesta: Emeta   =         0.000000
siesta: Emolmec =         0.000000
siesta: Ekinion =         0.000000
siesta: Eharris =    -13771.029670
siesta: Etot    =    -13771.024208
siesta: FreeEng =    -13771.056496

siesta: Final energy (eV):
siesta:  Band Struct. =   -4421.021099
siesta:       Kinetic =    9343.433754
siesta:       Hartree =   26673.910809
siesta:    Ext. field =       0.000000
siesta:   Exch.-corr. =   -4464.197810
siesta:  Ion-electron =  -62075.351842
siesta:       Ion-ion =   16751.180881
siesta:       Ekinion =       0.000000
siesta:         Total =  -13771.024208

siesta: Atomic forces (eV/Ang):
siesta:      1    0.125561    0.049169    0.000000
siesta:      2    0.104271    0.058799    0.000000
siesta:      3    0.135611   -0.867215    0.000000
siesta:      4    0.325461   -0.150334    0.000000
siesta:      5   -0.677586    0.531705    0.000000
siesta:      6    0.022287    0.337026    0.000000
siesta:      7    0.818759    0.583870    0.000000
siesta:      8   -0.982673   -0.800520    0.000000
siesta:      9    0.137558   -0.087959    0.000000
siesta:     10   -1.393072    0.451565    0.000000
siesta:     11   -0.103786   -1.012036    0.000000
siesta:     12   -1.085850    0.981854    0.000000
siesta:     13    0.926418    0.397669    0.000000
siesta:     14   -1.188591   -0.436161    0.000000
siesta:     15   -0.068727    0.233198    0.000000
siesta:     16   -0.001713   -0.074539    0.000000
siesta:     17    0.089083    0.233113    0.000000
siesta:     18   -0.102108    0.062543    0.000000
siesta:     19   -0.126140    0.049436    0.000000
siesta:     20   -0.149363    1.254080    0.000000
siesta:     21    0.780966    0.297438    0.000000
siesta:     22   -0.002954   -0.373529    0.000000
siesta:     23   -0.798914    0.291078    0.000000
siesta:     24    0.203639    1.253923    0.000000
siesta:     25    0.184989   -0.207132    0.000000
siesta:     26   -0.067235    0.040755    0.000000
siesta:     27    0.006976   -0.011996    0.000000
siesta:     28    0.068396    0.043517    0.000000
siesta:     29   -0.181691   -0.213169    0.000000
siesta:     30    1.122971    0.981877    0.000000
siesta:     31    0.083794   -1.000525    0.000000
siesta:     32    0.264028   -0.072007    0.000000
siesta:     33    0.002157   -0.115554    0.000000
siesta:     34   -0.264283   -0.078248    0.000000
siesta:     35    1.400363    0.459627    0.000000
siesta:     36   -0.118963   -0.089869    0.000000
siesta:     37    0.005235   -1.262650    0.000000
siesta:     38   -0.006795   -0.166783    0.000000
siesta:     39    0.993369   -0.792810    0.000000
siesta:     40   -0.798963    0.580959    0.000000
siesta:     41   -1.104315    0.652476    0.000000
siesta:     42    0.680472    0.533646    0.000000
siesta:     43   -0.319064    0.185821    0.000000
siesta:     44   -0.099111   -0.870628    0.000000
siesta:     45    1.221586   -0.440417    0.000000
siesta:     46   -0.951961    0.401788    0.000000
siesta:     47    0.296690   -1.415902    0.000000
siesta:     48    0.002525   -0.019502    0.000000
siesta:     49    1.114921    0.654596    0.000000
siesta:     50    0.009247    0.135739    0.000000
siesta:     51   -0.309827   -1.413625    0.000000
siesta:     52    0.320130    0.184460    0.000000
siesta:     53   -0.033523   -0.003314    0.000000
siesta:     54   -0.314014   -0.140332    0.000000
siesta:     55   -0.924360    0.621162    0.000000
siesta:     56    0.000628    0.534900    0.000000
siesta:     57    0.953640    0.621823    0.000000
siesta:     58   -1.132763   -0.656006    0.000000
siesta:     59    2.830402    0.364973    0.000000
siesta:     60    0.089077   -1.080431    0.000000
siesta:     61    1.719925    2.257028    0.000000
siesta:     62    0.492392   -0.280739    0.000000
siesta:     63    1.028711    0.550611    0.000000
siesta:     64   -2.833628    0.370252    0.000000
siesta:     65    1.193316   -0.655985    0.000000
siesta:     66   -1.101280   -2.676738    0.000000
siesta:     67    0.011348    1.405265    0.000000
siesta:     68   -1.741468    2.258862    0.000000
siesta:     69   -0.038056   -1.084004    0.000000
siesta:     70    1.112919   -2.682214    0.000000
siesta:     71   -0.972730    0.552295    0.000000
siesta:     72   -0.474246   -0.276825    0.000000
siesta: ----------------------------------------
siesta:    Tot    0.410070   -0.050797    0.000000

siesta: Stress tensor (static) (eV/Ang**3):
siesta:     0.006313   -0.000189    0.000000
siesta:    -0.000189    0.006682    0.000000
siesta:     0.000000    0.000000    0.000118

siesta: Cell volume =       1893.226895 Ang**3

siesta: Pressure (static):
siesta:                Solid            Molecule  Units
siesta:          -0.00004760          0.00014014  Ry/Bohr**3
siesta:          -0.00437078          0.01286758  eV/Ang**3
siesta:          -7.00282947         20.61636603  kBar
(Free)E+ p_basis*V_orbitals  =      -13742.892223
(Free)Eharris+ p_basis*V_orbitals  =      -13742.898148

siesta: Electric dipole (a.u.)  =    0.000000    0.000000    0.000000
siesta: Electric dipole (Debye) =    0.000000    0.000000    0.000000

* Maximum dynamic memory allocated : Node    0 =   199 MB
* Maximum dynamic memory allocated : Node    1 =    73 MB
* Maximum dynamic memory allocated : Node    2 =    75 MB
* Maximum dynamic memory allocated : Node    3 =   189 MB
* Maximum dynamic memory allocated : Node    4 =   194 MB
* Maximum dynamic memory allocated : Node    5 =    72 MB
* Maximum dynamic memory allocated : Node    6 =    73 MB
* Maximum dynamic memory allocated : Node    7 =   179 MB

* Maximum memory occured during matrixMtoO                    

timer: CPU execution times:
timer:  Routine       Calls   Time/call    Tot.time        %
timer:  siesta            1  293242.027  293242.027   100.00
timer:  Setup             1       2.965       2.965     0.00
timer:  bands             1       0.023       0.023     0.00
timer:  writewave         1       0.013       0.013     0.00
timer:  KSV_init          1       0.000       0.000     0.00
timer:  IterMD            1  293231.400  293231.400   100.00
timer:  hsparse           1       0.254       0.254     0.00
timer:  overlap           1       7.679       7.679     0.00
timer:  IterSCF          28   10466.747  293068.919    99.94
timer:  kinefsm           2       3.930       7.860     0.00
timer:  nlefsm            2      18.156      36.311     0.01
timer:  DHSCF            29      81.994    2377.838     0.81
timer:  DHSCF1            1       0.739       0.739     0.00
timer:  DHSCF2            1      35.081      35.081     0.01
timer:  REORD           234       0.010       2.262     0.00
timer:  POISON           30       2.396      71.891     0.02
timer:  DHSCF3           29      79.659    2310.122     0.79
timer:  rhoofd           29      15.390     446.300     0.15
timer:  cellXC           29       4.189     121.490     0.04
timer:  vmat             29      39.524    1146.202     0.39
timer:  MolMec            2       0.000       0.000     0.00
timer:  diagon           28   10382.733  290716.523    99.14
timer:  c-eigval       9856      12.068  118942.675    40.56
timer:  c-buildHS      9856       0.084     824.020     0.28
timer:  cdiag         19712      12.459  245600.923    83.75
timer:  cdiag1        19712       0.814   16035.775     5.47
timer:  cdiag2        19712       3.499   68973.987    23.52
timer:  cdiag3        19712       7.331  144500.968    49.28
timer:  cdiag4        19712       0.340    6693.090     2.28
timer:  c-eigvec       9856      13.000  128125.329    43.69
timer:  c-buildD       9856       4.421   43572.319    14.86
timer:  DHSCF4            1      30.406      30.406     0.01
timer:  dfscf             1      28.598      28.598     0.01
timer:  overfsm           1       0.371       0.371     0.00
timer:  optical           1       6.629       6.629     0.00
  

elaps: ELAPSED times:
elaps:  Routine       Calls   Time/call    Tot.time        %
elaps:  siesta            1   39126.572   39126.572   100.00
elaps:  Setup             1       0.383       0.383     0.00
elaps:  bands             1       0.001       0.001     0.00
elaps:  writewave         1       0.002       0.002     0.00
elaps:  KSV_init          1       0.000       0.000     0.00
elaps:  IterMD            1   39125.162   39125.162   100.00
elaps:  hsparse           1       0.032       0.032     0.00
elaps:  overlap           1       1.055       1.055     0.00
elaps:  IterSCF          28    1396.555   39103.538    99.94
elaps:  kinefsm           2       0.572       1.145     0.00
elaps:  nlefsm            2       2.370       4.739     0.01
elaps:  DHSCF            29      11.033     319.948     0.82
elaps:  DHSCF1            1       0.104       0.104     0.00
elaps:  DHSCF2            1       4.692       4.692     0.01
elaps:  REORD           234       0.001       0.316     0.00
elaps:  POISON           30       0.317       9.512     0.02
elaps:  DHSCF3           29      10.612     307.748     0.79
elaps:  rhoofd           29       3.654     105.959     0.27
elaps:  cellXC           29       0.558      16.172     0.04
elaps:  vmat             29       5.262     152.588     0.39
elaps:  MolMec            2       0.000       0.000     0.00
elaps:  diagon           28    1385.361   38790.104    99.14
elaps:  c-eigval       9856       1.610   15870.902    40.56
elaps:  c-buildHS      9856       0.013     130.626     0.33
elaps:  cdiag         19712       1.658   32678.705    83.52
elaps:  cdiag1        19712       0.107    2104.149     5.38
elaps:  cdiag2        19712       0.467    9203.328    23.52
elaps:  cdiag3        19712       0.980   19317.531    49.37
elaps:  cdiag4        19712       0.046     908.557     2.32
elaps:  c-eigvec       9856       1.730   17048.597    43.57
elaps:  c-buildD       9856       0.594    5858.788    14.97
elaps:  DHSCF4            1       7.135       7.135     0.02
elaps:  dfscf             1       6.744       6.744     0.02
elaps:  overfsm           1       0.048       0.048     0.00
elaps:  optical           1       0.000       0.000     0.00
  
>> End of run:   7-DEC-2015   2:13:20
