Siesta Version:                                        siesta-3.2-pl-3
Architecture  : x86_64-unknown-linux-gnu--unknown
Compiler flags: mpiifort -g -O2 -fPIC -xSSE4.1 -fp-model source -shared-intel 
PARALLEL version

* Running on    8 nodes in parallel
>> Start of run:   5-DEC-2015   2:55:12

                           ***********************       
                           *  WELCOME TO SIESTA  *       
                           ***********************       

reinit: Reading from standard input
************************** Dump of input data file ****************************
#(1) General system descriptors
SystemName            GRP_doping    # Descriptive name of the system
SystemLabel           GRP_doping    # Short name for naming files
%include STRUCT.fdf
%include KPT.fdf
%include BASIS.fdf
#%include TS.fdf # for transiesta calculation
#(4) DFT, Grid, SCF
XC.functional         GGA           # LDA or GGA (default = LDA)
XC.authors            PBE           # CA (Ceperley-Aldr) = PZ
                                    #    (Perdew-Zunger) - LDA - Default
                                    # PW92 (Perdew-Wang-92) - LDA
                                    # PBE (Perdew-Burke-Ernzerhof) - GGA
MeshCutoff            200.000000    Ry      # Default: 50.0 Ry ~ 0.444 Bohr
                                    #         100.0 Ry ~ 0.314 Bohr
MaxSCFIterations      500           # Default: 50
DM.MixingWeight       0.05          # Default: 0.25
DM.NumberPulay        10            # Default: 0
DM.PulayOnFile        F             # SystemLabel.P1, SystemLabel.P2
DM.Tolerance          1.d-4         # Default: 1.d-4
DM.UseSaveDM          .true.        # because of the bug
SCFMustConverge       .true.
NeglNonOverlapInt     F             # Default: F
#(5) Eigenvalue problem: order-N or diagonalization
SolutionMethod        Diagon        # or Transiesta
ElectronicTemperature 300.0 K       # Default: 300.0 K
#(6) Molecular dynamics and relaxations
#MD.TypeOfRun          CG            # Type of dynamics:
#MD.VariableCell       F
#MD.NumCGsteps         0           # 0 for single-point / 100 for gopt
#MD.MaxCGDispl         0.2 Bohr      # Default: 0.2 Bohr
#MD.MaxForceTol        0.02 eV/Ang   # Default: 0.04 eV/Ang
#MD.MaxStressTol       1.0 GPa       # Default: 1.0 GPa
# Geometry Constraints
#%block GeometryConstraints
#	position from 1 to 44
#%endblock GeometryConstraints
************************** End of input data file *****************************

reinit: -----------------------------------------------------------------------
reinit: System Name: GRP_doping
reinit: -----------------------------------------------------------------------
reinit: System Label: GRP_doping                                                  
reinit: -----------------------------------------------------------------------

initatom: Reading input for the pseudopotentials and atomic orbitals ----------
 Species number:            1  Label: N Atomic number:           7
 Species number:            2  Label: C Atomic number:           6
Ground state valence configuration:   2s02  2p03
Reading pseudopotential information in formatted form from N.psf

Valence configuration for pseudopotential generation:
2s( 2.00) rc: 1.48
2p( 3.00) rc: 1.48
3d( 0.00) rc: 1.48
4f( 0.00) rc: 1.48
Ground state valence configuration:   2s02  2p02
Reading pseudopotential information in formatted form from C.psf

Valence configuration for pseudopotential generation:
2s( 2.00) rc: 1.54
2p( 2.00) rc: 1.54
3d( 0.00) rc: 1.54
4f( 0.00) rc: 1.54
For N, standard SIESTA heuristics set lmxkb to 3
 (one more than the basis l, including polarization orbitals).
Use PS.lmax or PS.KBprojectors blocks to override.
For C, standard SIESTA heuristics set lmxkb to 3
 (one more than the basis l, including polarization orbitals).
Use PS.lmax or PS.KBprojectors blocks to override.

<basis_specs>
===============================================================================
N                    Z=   7    Mass=  14.010        Charge= 0.17977+309
Lmxo=1 Lmxkb= 3    BasisType=split      Semic=F
L=0  Nsemic=0  Cnfigmx=2
          n=1  nzeta=2  polorb=0
            splnorm:   0.15000    
               vcte:    0.0000    
               rinn:    0.0000    
                rcs:    0.0000      0.0000    
            lambdas:    1.0000      1.0000    
L=1  Nsemic=0  Cnfigmx=2
          n=1  nzeta=2  polorb=1
            splnorm:   0.15000    
               vcte:    0.0000    
               rinn:    0.0000    
                rcs:    0.0000      0.0000    
            lambdas:    1.0000      1.0000    
-------------------------------------------------------------------------------
L=0  Nkbl=1  erefs: 0.17977+309
L=1  Nkbl=1  erefs: 0.17977+309
L=2  Nkbl=1  erefs: 0.17977+309
L=3  Nkbl=1  erefs: 0.17977+309
===============================================================================
</basis_specs>

atom: Called for N                     (Z =   7)

read_vps: Pseudopotential generation method:
read_vps: ATM3      Troullier-Martins                       
Total valence charge:    5.00000

read_vps: Pseudopotential includes a core correction:
read_vps: Pseudo-core for xc-correction

xc_check: Exchange-correlation functional:
xc_check: GGA Perdew, Burke & Ernzerhof 1996
V l=0 = -2*Zval/r beyond r=  1.4606
V l=1 = -2*Zval/r beyond r=  1.4606
V l=2 = -2*Zval/r beyond r=  1.4606
V l=3 = -2*Zval/r beyond r=  1.4606
All V_l potentials equal beyond r=  1.4606
This should be close to max(r_c) in ps generation
All pots = -2*Zval/r beyond r=  1.4606

VLOCAL1: 99.0% of the norm of Vloc inside     20.347 Ry
VLOCAL1: 99.9% of the norm of Vloc inside     46.372 Ry
atom: Maximum radius for 4*pi*r*r*local-pseudopot. charge    1.76189
atom: Maximum radius for r*vlocal+2*Zval:    1.53550
GHOST: No ghost state for L =  0
GHOST: No ghost state for L =  1
GHOST: No ghost state for L =  2
GHOST: No ghost state for L =  3

KBgen: Kleinman-Bylander projectors: 
   l= 0   rc=  1.634559   el= -1.363963   Ekb=  5.296955   kbcos=  0.335621
   l= 1   rc=  1.614250   el= -0.521451   Ekb= -5.259161   kbcos= -0.433408
   l= 2   rc=  1.718383   el=  0.001991   Ekb= -1.271464   kbcos= -0.007566
   l= 3   rc=  1.761893   el=  0.003093   Ekb= -0.494769   kbcos= -0.001015

KBgen: Total number of  Kleinman-Bylander projectors:   16
atom: -------------------------------------------------------------------------

atom: SANKEY-TYPE ORBITALS:
atom: Selected multiple-zeta basis: split     

SPLIT: Orbitals with angular momentum L= 0

SPLIT: Basis orbitals for state 2s

SPLIT: PAO cut-off radius determined from an
SPLIT: energy shift=  0.007350 Ry

   izeta = 1
                 lambda =    1.000000
                     rc =    4.071465
                 energy =   -1.356470
                kinetic =    1.176977
    potential(screened) =   -2.533447
       potential(ionic) =   -8.057990

   izeta = 2
                 rmatch =    2.905100
              splitnorm =    0.150000
                 energy =   -1.158343
                kinetic =    1.813009
    potential(screened) =   -2.971352
       potential(ionic) =   -8.901931

SPLIT: Orbitals with angular momentum L= 1

SPLIT: Basis orbitals for state 2p

SPLIT: PAO cut-off radius determined from an
SPLIT: energy shift=  0.007350 Ry

   izeta = 1
                 lambda =    1.000000
                     rc =    4.972977
                 energy =   -0.513884
                kinetic =    3.441732
    potential(screened) =   -3.955616
       potential(ionic) =   -9.287901

   izeta = 2
                 rmatch =    3.054066
              splitnorm =    0.150000
                 energy =   -0.318226
                kinetic =    5.125348
    potential(screened) =   -5.443573
       potential(ionic) =  -11.380999

POLgen: Perturbative polarization orbital with L=  2

POLgen: Polarization orbital for state 2p

   izeta = 1
                     rc =    4.972977
                 energy =    1.607437
                kinetic =    3.268125
    potential(screened) =   -1.660688
       potential(ionic) =   -5.973652
atom: Total number of Sankey-type orbitals: 13

atm_pop: Valence configuration (for local Pseudopot. screening):
 2s( 2.00)                                                            
 2p( 3.00)                                                            
Vna: chval, zval:    5.00000   5.00000

Vna:  Cut-off radius for the neutral-atom potential:   4.972977
comcore: Pseudo-core radius Rcore=  1.554824

atom: _________________________________________________________________________

<basis_specs>
===============================================================================
C                    Z=   6    Mass=  12.010        Charge= 0.17977+309
Lmxo=1 Lmxkb= 3    BasisType=split      Semic=F
L=0  Nsemic=0  Cnfigmx=2
          n=1  nzeta=2  polorb=0
            splnorm:   0.15000    
               vcte:    0.0000    
               rinn:    0.0000    
                rcs:    0.0000      0.0000    
            lambdas:    1.0000      1.0000    
L=1  Nsemic=0  Cnfigmx=2
          n=1  nzeta=2  polorb=1
            splnorm:   0.15000    
               vcte:    0.0000    
               rinn:    0.0000    
                rcs:    0.0000      0.0000    
            lambdas:    1.0000      1.0000    
-------------------------------------------------------------------------------
L=0  Nkbl=1  erefs: 0.17977+309
L=1  Nkbl=1  erefs: 0.17977+309
L=2  Nkbl=1  erefs: 0.17977+309
L=3  Nkbl=1  erefs: 0.17977+309
===============================================================================
</basis_specs>

atom: Called for C                     (Z =   6)

read_vps: Pseudopotential generation method:
read_vps: ATM3      Troullier-Martins                       
Total valence charge:    4.00000

read_vps: Pseudopotential includes a core correction:
read_vps: Pseudo-core for xc-correction

xc_check: Exchange-correlation functional:
xc_check: GGA Perdew, Burke & Ernzerhof 1996
V l=0 = -2*Zval/r beyond r=  1.5227
V l=1 = -2*Zval/r beyond r=  1.5227
V l=2 = -2*Zval/r beyond r=  1.5227
V l=3 = -2*Zval/r beyond r=  1.5038
All V_l potentials equal beyond r=  1.5227
This should be close to max(r_c) in ps generation
All pots = -2*Zval/r beyond r=  1.5227

VLOCAL1: 99.0% of the norm of Vloc inside     18.722 Ry
VLOCAL1: 99.9% of the norm of Vloc inside     42.668 Ry
atom: Maximum radius for 4*pi*r*r*local-pseudopot. charge    1.83678
atom: Maximum radius for r*vlocal+2*Zval:    1.58088
GHOST: No ghost state for L =  0
GHOST: No ghost state for L =  1
GHOST: No ghost state for L =  2
GHOST: No ghost state for L =  3

KBgen: Kleinman-Bylander projectors: 
   l= 0   rc=  1.704034   el= -1.009801   Ekb=  5.335044   kbcos=  0.316824
   l= 1   rc=  1.704034   el= -0.388707   Ekb= -3.785862   kbcos= -0.366464
   l= 2   rc=  1.791422   el=  0.001971   Ekb= -0.970471   kbcos= -0.009212
   l= 3   rc=  1.859892   el=  0.003065   Ekb= -0.399525   kbcos= -0.001223

KBgen: Total number of  Kleinman-Bylander projectors:   16
atom: -------------------------------------------------------------------------

atom: SANKEY-TYPE ORBITALS:
atom: Selected multiple-zeta basis: split     

SPLIT: Orbitals with angular momentum L= 0

SPLIT: Basis orbitals for state 2s

SPLIT: PAO cut-off radius determined from an
SPLIT: energy shift=  0.007350 Ry

   izeta = 1
                 lambda =    1.000000
                     rc =    4.632753
                 energy =   -1.002270
                kinetic =    0.855760
    potential(screened) =   -1.858031
       potential(ionic) =   -5.417575

   izeta = 2
                 rmatch =    3.431921
              splitnorm =    0.150000
                 energy =   -0.867111
                kinetic =    1.300804
    potential(screened) =   -2.167915
       potential(ionic) =   -5.962684

SPLIT: Orbitals with angular momentum L= 1

SPLIT: Basis orbitals for state 2p

SPLIT: PAO cut-off radius determined from an
SPLIT: energy shift=  0.007350 Ry

   izeta = 1
                 lambda =    1.000000
                     rc =    5.658549
                 energy =   -0.381140
                kinetic =    2.399701
    potential(screened) =   -2.780841
       potential(ionic) =   -6.206085

   izeta = 2
                 rmatch =    3.653288
              splitnorm =    0.150000
                 energy =   -0.249149
                kinetic =    3.542762
    potential(screened) =   -3.791911
       potential(ionic) =   -7.581078

POLgen: Perturbative polarization orbital with L=  2

POLgen: Polarization orbital for state 2p

   izeta = 1
                     rc =    5.658549
                 energy =    1.109913
                kinetic =    2.304789
    potential(screened) =   -1.194876
       potential(ionic) =   -4.013592
atom: Total number of Sankey-type orbitals: 13

atm_pop: Valence configuration (for local Pseudopot. screening):
 2s( 2.00)                                                            
 2p( 2.00)                                                            
Vna: chval, zval:    4.00000   4.00000

Vna:  Cut-off radius for the neutral-atom potential:   5.658549
comcore: Pseudo-core radius Rcore=  1.791422

atom: _________________________________________________________________________

prinput: Basis input ----------------------------------------------------------

PAO.BasisType split     

%block ChemicalSpeciesLabel
    1    7 N                       # Species index, atomic number, species label
    2    6 C                       # Species index, atomic number, species label
%endblock ChemicalSpeciesLabel

%block PAO.Basis                 # Define Basis set
N                     2                    # Species label, number of l-shells
 n=2   0   2                         # n, l, Nzeta 
   4.071      2.905   
   1.000      1.000   
 n=2   1   2 P   1                   # n, l, Nzeta, Polarization, NzetaPol
   4.973      3.054   
   1.000      1.000   
C                     2                    # Species label, number of l-shells
 n=2   0   2                         # n, l, Nzeta 
   4.633      3.432   
   1.000      1.000   
 n=2   1   2 P   1                   # n, l, Nzeta, Polarization, NzetaPol
   5.659      3.653   
   1.000      1.000   
%endblock PAO.Basis

prinput: ----------------------------------------------------------------------

coor:   Atomic-coordinates input format  =     Cartesian coordinates
coor:                                          (in Angstroms)

siesta: Atomic coordinates (Bohr) and species
siesta:      2.23554   1.32097   0.00000  1        1
siesta:      4.56367   2.66461   0.00000  1        2
siesta:     34.83104  14.76308   0.00000  1        3
siesta:     30.17453   6.69743   0.00000  1        4
siesta:     30.17527  22.82873   0.00000  1        5
siesta:     11.54782   1.32097   0.00000  1        6
siesta:     13.87595   2.66461   0.00000  1        7
siesta:     20.86199   1.32097   0.00000  1        8
siesta:     23.19013   2.66461   0.00000  1        9
siesta:     11.54807   6.69743   0.00000  1       10
siesta:     20.86224   6.69743   0.00000  1       11
siesta:      6.89205   9.38661   0.00000  1       12
siesta:      9.22019  10.73026   0.00000  1       13
siesta:     16.20434   9.38661   0.00000  1       14
siesta:     18.53247  10.73026   0.00000  1       15
siesta:     16.20459  14.76308   0.00000  1       16
siesta:     11.54857  17.45226   0.00000  1       17
siesta:     13.87670  18.79590   0.00000  1       18
siesta:     20.86299  22.82873   0.00000  1       19
siesta:     25.51851   9.38661   0.00000  1       20
siesta:     27.84664  10.73026   0.00000  1       21
siesta:     25.51876  14.76308   0.00000  1       22
siesta:     20.86274  17.45226   0.00000  1       23
siesta:     23.19088  18.79590   0.00000  1       24
siesta:     30.17503  17.45226   0.00000  1       25
siesta:     32.50316  18.79590   0.00000  1       26
siesta:     39.48945  22.82873   0.00000  1       27
siesta:     32.50328  21.48508   0.00000  2       28
siesta:     34.83141  22.82873   0.00000  2       29
siesta:     34.83116  17.45226   0.00000  2       30
siesta:     37.15930  18.79590   0.00000  2       31
siesta:     32.50291  13.41944   0.00000  2       32
siesta:     30.17465   9.38661   0.00000  2       33
siesta:     32.50278  10.73026   0.00000  2       34
siesta:     27.84639   5.35379   0.00000  2       35
siesta:     27.84714  21.48508   0.00000  2       36
siesta:      6.89168   1.32097   0.00000  2       37
siesta:      9.21981   2.66461   0.00000  2       38
siesta:     16.20396   1.32097   0.00000  2       39
siesta:     18.53210   2.66461   0.00000  2       40
siesta:     25.51813   1.32097   0.00000  2       41
siesta:     27.84627   2.66461   0.00000  2       42
siesta:      4.56380   5.35379   0.00000  2       43
siesta:      6.89193   6.69743   0.00000  2       44
siesta:      9.21994   5.35379   0.00000  2       45
siesta:     13.87608   5.35379   0.00000  2       46
siesta:     16.20421   6.69743   0.00000  2       47
siesta:     18.53411   5.35379   0.00000  2       48
siesta:     23.19025   5.35379   0.00000  2       49
siesta:     25.51838   6.69743   0.00000  2       50
siesta:     11.54820   9.38661   0.00000  2       51
siesta:     13.87633  10.73026   0.00000  2       52
siesta:     20.86237   9.38661   0.00000  2       53
siesta:     23.19050  10.73026   0.00000  2       54
siesta:      9.22031  13.41944   0.00000  2       55
siesta:     11.54845  14.76308   0.00000  2       56
siesta:     13.87645  13.41944   0.00000  2       57
siesta:     18.53448  13.41944   0.00000  2       58
siesta:     20.86262  14.76308   0.00000  2       59
siesta:     16.20471  17.45226   0.00000  2       60
siesta:     18.53284  18.79590   0.00000  2       61
siesta:     13.87683  21.48508   0.00000  2       62
siesta:     16.20496  22.82873   0.00000  2       63
siesta:     18.53486  21.48508   0.00000  2       64
siesta:     23.19063  13.41944   0.00000  2       65
siesta:     27.84677  13.41944   0.00000  2       66
siesta:     30.17490  14.76308   0.00000  2       67
siesta:     25.51888  17.45226   0.00000  2       68
siesta:     27.84702  18.79590   0.00000  2       69
siesta:     23.19100  21.48508   0.00000  2       70
siesta:     25.51913  22.82873   0.00000  2       71
siesta:     37.16131  21.48508   0.00000  2       72

siesta: System type = slab      

initatomlists: Number of atoms, orbitals, and projectors:     72   936  1152

siesta: ******************** Simulation parameters ****************************
siesta:
siesta: The following are some of the parameters of the simulation.
siesta: A complete list of the parameters used, including default values,
siesta: can be found in file out.fdf
siesta:
redata: Non-Collinear-spin run           =     F
redata: SpinPolarized (Up/Down) run      =     F
redata: Number of spin components        =     1
redata: Long output                      =     F
redata: Number of Atomic Species         =        2
redata: Charge density info will appear in .RHO file
redata: Write Mulliken Pop.              =     NO
redata: Mesh Cutoff                      =   200.0000  Ry
redata: Net charge of the system         =     0.0000 |e|
redata: Max. number of SCF Iter          =      500
redata: SCF convergence failure will abort job
redata: Performing Pulay mixing using    =    10 iterations
redata: Mix DM in first SCF step ?       =     F
redata: Write Pulay info on disk?        =     F
redata: Discard 1st Pulay DM after  kick =     F
redata: New DM Mixing Weight             =     0.0500
redata: New DM Occupancy tolerance       = 0.000000000001
redata: No kicks to SCF
redata: DM Mixing Weight for Kicks       =     0.5000
redata: DM Tolerance for SCF             =     0.000100
redata: Require Energy convergence for SCF =     F
redata: DM Energy tolerance for SCF      =     0.000100 eV
redata: Require Harris convergence for SCF =     F
redata: DM Harris energy tolerance for SCF =     0.000100 eV
redata: Using Saved Data (generic)   =     F
redata: Use continuation files for DM    =     T
redata: Neglect nonoverlap interactions  =     F
redata: Method of Calculation            =     Diagonalization
redata: Divide and Conquer               =     T
redata: Electronic Temperature           =     0.0019  Ry
redata: Fix the spin of the system       =     F
redata: Dynamics option                  =     Verlet MD run
redata: Initial MD time step             =        1
redata:   Final MD time step             =        1
redata: Length of MD time step           =     1.0000  fs
redata: Initial Temperature of MD run    =     0.0000  K
redata: Perform a MD quench              =     F
redata: ***********************************************************************
Total number of electrons:   315.000000
Total ionic charge:   315.000000

* ProcessorY, Blocksize:    2  24

k-point displ. along   1 input, could be:     0.00    0.50
k-point displ. along   2 input, could be:     0.00    0.50
 Kpoints in:          364 . Kpoints trimmed:          352

siesta: k-grid: Number of k-points =   352
siesta: k-grid: Cutoff (effective) =     5.000 Ang
siesta: k-grid: Supercell and displacements
siesta: k-grid:   26   0   0      0.000
siesta: k-grid:    0  26   0      0.000
siesta: k-grid:    0   0   1      0.000
Naive supercell factors:     2    2    2

superc: Internal auxiliary supercell:     2 x     2 x     2  =       8
superc: Number of atoms, orbitals, and projectors:    576   7488   9216

* Maximum dynamic memory allocated =     6 MB

siesta:                 ==============================
                            Begin MD step =      1
                        ==============================

superc: Internal auxiliary supercell:     2 x     2 x     2  =       8
superc: Number of atoms, orbitals, and projectors:    576   7488   9216

outcell: Unit cell vectors (Ang):
       14.785000    0.000000    0.000000
        7.393000   12.805052    0.000000
        0.000000    0.000000   10.000000

outcell: Cell vector modules (Ang)   :   14.785000   14.786000   10.000000
outcell: Cell angles (23,13,12) (deg):     90.0000     90.0000     60.0000
outcell: Cell volume (Ang**3)        :   1893.2269
New_DM. Step:     1
Initializing Density Matrix...

InitMesh: MESH =   120 x   120 x    90 =     1296000
InitMesh: Mesh cutoff (required, used) =   200.000   223.865 Ry

* Maximum dynamic memory allocated =   175 MB

stepf: Fermi-Dirac step function

siesta: Program's energy decomposition (eV):
siesta: Ebs     =     -4927.988218
siesta: Eions   =     22743.175864
siesta: Ena     =      4240.728747
siesta: Ekin    =      8644.090471
siesta: Enl     =      -529.727262
siesta: DEna    =        -0.000012
siesta: DUscf   =         0.000000
siesta: DUext   =         0.000000
siesta: Exc     =     -4604.881081
siesta: eta*DQ  =         0.000000
siesta: Emadel  =         0.000000
siesta: Emeta   =         0.000000
siesta: Emolmec =         0.000000
siesta: Ekinion =         0.000000
siesta: Eharris =    -14843.918857
siesta: Etot    =    -14992.965001
siesta: FreeEng =    -14992.965001

siesta: iscf   Eharris(eV)      E_KS(eV)   FreeEng(eV)   dDmax  Ef(eV)
siesta:    1   -14843.9189   -14992.9650   -14992.9650  1.9500 -3.4515
timer: Routine,Calls,Time,% = IterSCF        1   10504.821  99.89
elaps: Routine,Calls,Wall,% = IterSCF        1    1401.744  99.90
siesta:    2   -14848.8442   -14822.7832   -14822.8082  0.2139 -2.1824
siesta:    3   -14841.3452   -14836.9499   -14836.9812  0.1693 -2.2531
siesta:    4   -14834.1729   -14833.3907   -14833.4153  0.1086 -2.3010
siesta:    5   -14832.4816   -14830.9700   -14830.9935  0.0558 -2.3750
siesta:    6   -14832.2321   -14831.1404   -14831.1645  0.0338 -2.4455
siesta:    7   -14832.1571   -14830.6046   -14830.6286  0.0063 -2.5675
siesta:    8   -14832.1394   -14831.2516   -14831.2755  0.0068 -2.5649
siesta:    9   -14832.1401   -14831.3566   -14831.3807  0.0055 -2.5624
siesta:   10   -14832.1376   -14831.7702   -14831.7943  0.0036 -2.5615
siesta:   11   -14832.1370   -14831.9911   -14832.0152  0.0007 -2.5604
siesta:   12   -14832.1370   -14832.0034   -14832.0275  0.0005 -2.5602
siesta:   13   -14832.1369   -14832.0679   -14832.0919  0.0003 -2.5599
siesta:   14   -14832.1369   -14832.1057   -14832.1297  0.0001 -2.5595
siesta:   15   -14832.1369   -14832.1188   -14832.1429  0.0001 -2.5595

siesta: E_KS(eV) =           -14832.1287

siesta: E_KS - E_eggbox =    -14832.1287

siesta: Atomic forces (eV/Ang):
----------------------------------------
   Tot    0.575956    0.206131    0.000000
----------------------------------------
   Max    1.037466
   Res    0.417676    sqrt( Sum f_i^2 / 3N )
----------------------------------------
   Max    1.037466    constrained

Stress-tensor-Voigt (kbar):       61.23       59.16        0.36        1.77        0.00        0.00
(Free)E + p*V (eV/cell)   -14879.7132
Target enthalpy (eV/cell)   -14832.1528

siesta: Stress tensor (static) (eV/Ang**3):
         0.038219    0.001105    0.000000
         0.001105    0.036923    0.000000
         0.000000    0.000000    0.000222

siesta: Pressure (static):        -40.24930905  kBar

siesta: Stress tensor (total) (eV/Ang**3):
         0.038219    0.001105    0.000000
         0.001105    0.036923    0.000000
         0.000000    0.000000    0.000222

siesta: Pressure (total):        -40.24930905  kBar

siesta: Temp_ion =       0.000 K

* Maximum dynamic memory allocated =   190 MB

siesta: Program's energy decomposition (eV):
siesta: Ebs     =     -4664.818795
siesta: Eions   =     22743.175864
siesta: Ena     =      4240.728747
siesta: Ekin    =     10095.256014
siesta: Enl     =     -1595.914320
siesta: DEna    =      -174.652821
siesta: DUscf   =        21.405490
siesta: DUext   =         0.000000
siesta: Exc     =     -4675.775970
siesta: eta*DQ  =         0.000000
siesta: Emadel  =         0.000000
siesta: Emeta   =         0.000000
siesta: Emolmec =         0.000000
siesta: Ekinion =         0.000000
siesta: Eharris =    -14832.136904
siesta: Etot    =    -14832.128724
siesta: FreeEng =    -14832.152794

siesta: Final energy (eV):
siesta:  Band Struct. =   -4664.818795
siesta:       Kinetic =   10095.256014
siesta:       Hartree =   28284.902351
siesta:    Ext. field =       0.000000
siesta:   Exch.-corr. =   -4675.775970
siesta:  Ion-electron =  -66046.882683
siesta:       Ion-ion =   17510.371564
siesta:       Ekinion =       0.000000
siesta:         Total =  -14832.128724

siesta: Atomic forces (eV/Ang):
siesta:      1   -0.184573   -0.150478    0.000000
siesta:      2   -0.538771   -0.282362    0.000000
siesta:      3   -0.638668   -0.345518    0.000000
siesta:      4   -0.638642   -0.343876    0.000000
siesta:      5   -0.653142   -0.325360    0.000000
siesta:      6   -0.162972   -0.156189    0.000000
siesta:      7   -0.537193   -0.277621    0.000000
siesta:      8   -0.197347   -0.151473    0.000000
siesta:      9   -0.539664   -0.281319    0.000000
siesta:     10   -0.650110   -0.340628    0.000000
siesta:     11   -0.653312   -0.345388    0.000000
siesta:     12   -0.176116   -0.134213    0.000000
siesta:     13   -0.536485   -0.276087    0.000000
siesta:     14   -0.162382   -0.134224    0.000000
siesta:     15   -0.502685   -0.286251    0.000000
siesta:     16   -0.625661   -0.344447    0.000000
siesta:     17   -0.176532   -0.137624    0.000000
siesta:     18   -0.536893   -0.275264    0.000000
siesta:     19   -0.656497   -0.328173    0.000000
siesta:     20   -0.165792   -0.138021    0.000000
siesta:     21   -0.535087   -0.276059    0.000000
siesta:     22   -0.649009   -0.340534    0.000000
siesta:     23   -0.190248   -0.133505    0.000000
siesta:     24   -0.539055   -0.274135    0.000000
siesta:     25   -0.164380   -0.135732    0.000000
siesta:     26   -0.536936   -0.276768    0.000000
siesta:     27   -0.670344   -0.323652    0.000000
siesta:     28   -0.362755    0.850504    0.000000
siesta:     29    0.042326    0.215207    0.000000
siesta:     30    0.564550   -0.764153    0.000000
siesta:     31    0.199319   -0.084833    0.000000
siesta:     32    1.035881    0.578412    0.000000
siesta:     33    0.563186   -0.768855    0.000000
siesta:     34    0.190404   -0.088667    0.000000
siesta:     35    1.035626    0.577900    0.000000
siesta:     36    1.034523    0.581911    0.000000
siesta:     37    0.565070   -0.782416    0.000000
siesta:     38    0.180193   -0.089178    0.000000
siesta:     39    0.570490   -0.781548    0.000000
siesta:     40    0.211972   -0.090942    0.000000
siesta:     41    0.566622   -0.782421    0.000000
siesta:     42    0.191609   -0.089528    0.000000
siesta:     43   -0.379636    0.846525    0.000000
siesta:     44    0.006092    0.208711    0.000000
siesta:     45    1.034644    0.578543    0.000000
siesta:     46   -0.361910    0.843189    0.000000
siesta:     47    0.035841    0.197586    0.000000
siesta:     48    0.998299    0.589762    0.000000
siesta:     49   -0.369040    0.842697    0.000000
siesta:     50    0.008092    0.206888    0.000000
siesta:     51    0.561014   -0.766463    0.000000
siesta:     52    0.180069   -0.084618    0.000000
siesta:     53    0.537221   -0.760886    0.000000
siesta:     54    0.176262   -0.083010    0.000000
siesta:     55   -0.379626    0.847389    0.000000
siesta:     56    0.006068    0.209155    0.000000
siesta:     57    1.037466    0.576397    0.000000
siesta:     58   -0.402549    0.850720    0.000000
siesta:     59    0.002451    0.207726    0.000000
siesta:     60    0.566083   -0.766570    0.000000
siesta:     61    0.211183   -0.089331    0.000000
siesta:     62   -0.350003    0.846531    0.000000
siesta:     63    0.044634    0.212814    0.000000
siesta:     64    0.997096    0.589963    0.000000
siesta:     65    1.035180    0.576864    0.000000
siesta:     66   -0.369230    0.844307    0.000000
siesta:     67    0.008655    0.207154    0.000000
siesta:     68    0.560738   -0.766679    0.000000
siesta:     69    0.179898   -0.084853    0.000000
siesta:     70   -0.369263    0.845779    0.000000
siesta:     71    0.004740    0.224097    0.000000
siesta:     72    0.994965    0.589255    0.000000
siesta: ----------------------------------------
siesta:    Tot    0.575956    0.206131    0.000000

siesta: Stress tensor (static) (eV/Ang**3):
siesta:     0.038219    0.001105    0.000000
siesta:     0.001105    0.036923    0.000000
siesta:     0.000000    0.000000    0.000222

siesta: Cell volume =       1893.226895 Ang**3

siesta: Pressure (static):
siesta:                Solid            Molecule  Units
siesta:          -0.00027360         -0.00034200  Ry/Bohr**3
siesta:          -0.02512137         -0.03140083  eV/Ang**3
siesta:         -40.24930905        -50.31021511  kBar
(Free)E+ p_basis*V_orbitals  =      -14805.275194
(Free)Eharris+ p_basis*V_orbitals  =      -14805.293280

siesta: Electric dipole (a.u.)  =    0.000000    0.000000    0.000000
siesta: Electric dipole (Debye) =    0.000000    0.000000    0.000000

* Maximum dynamic memory allocated : Node    0 =   190 MB
* Maximum dynamic memory allocated : Node    1 =    70 MB
* Maximum dynamic memory allocated : Node    2 =    72 MB
* Maximum dynamic memory allocated : Node    3 =   180 MB
* Maximum dynamic memory allocated : Node    4 =   188 MB
* Maximum dynamic memory allocated : Node    5 =    70 MB
* Maximum dynamic memory allocated : Node    6 =    72 MB
* Maximum dynamic memory allocated : Node    7 =   174 MB

* Maximum memory occured during matrixMtoO                    

timer: CPU execution times:
timer:  Routine       Calls   Time/call    Tot.time        %
timer:  siesta            1  156077.669  156077.669   100.00
timer:  Setup             1       3.018       3.018     0.00
timer:  bands             1       0.008       0.008     0.00
timer:  writewave         1       0.023       0.023     0.00
timer:  KSV_init          1       0.000       0.000     0.00
timer:  IterMD            1  156066.229  156066.229    99.99
timer:  hsparse           1       0.255       0.255     0.00
timer:  overlap           1       7.692       7.692     0.00
timer:  IterSCF          15   10394.151  155912.260    99.89
timer:  kinefsm           2       3.926       7.851     0.01
timer:  nlefsm            2      17.540      35.080     0.02
timer:  DHSCF            16      76.521    1224.329     0.78
timer:  DHSCF1            1       0.748       0.748     0.00
timer:  DHSCF2            1      31.709      31.709     0.02
timer:  REORD           130       0.010       1.272     0.00
timer:  POISON           17       2.382      40.494     0.03
timer:  DHSCF3           16      72.685    1162.965     0.75
timer:  rhoofd           16      14.048     224.766     0.14
timer:  cellXC           16       4.055      64.880     0.04
timer:  vmat             16      35.878     574.053     0.37
timer:  MolMec            2       0.000       0.000     0.00
timer:  diagon           15   10314.987  154724.806    99.13
timer:  c-eigval       5280      12.097   63873.593    40.92
timer:  c-buildHS      5280       0.081     426.387     0.27
timer:  cdiag         10560      12.486  131849.291    84.48
timer:  cdiag1        10560       0.812    8578.204     5.50
timer:  cdiag2        10560       3.503   36986.440    23.70
timer:  cdiag3        10560       7.352   77639.707    49.74
timer:  cdiag4        10560       0.339    3578.507     2.29
timer:  c-eigvec       5280      13.017   68727.667    44.03
timer:  c-buildD       5280       4.182   22082.854    14.15
timer:  DHSCF4            1      28.102      28.102     0.02
timer:  dfscf             1      26.307      26.307     0.02
timer:  overfsm           1       0.369       0.369     0.00
timer:  optical           1       7.352       7.352     0.00
  

elaps: ELAPSED times:
elaps:  Routine       Calls   Time/call    Tot.time        %
elaps:  siesta            1   20823.721   20823.721   100.00
elaps:  Setup             1       0.401       0.401     0.00
elaps:  bands             1       0.001       0.001     0.00
elaps:  writewave         1       0.003       0.003     0.00
elaps:  KSV_init          1       0.000       0.000     0.00
elaps:  IterMD            1   20822.193   20822.193    99.99
elaps:  hsparse           1       0.032       0.032     0.00
elaps:  overlap           1       0.965       0.965     0.00
elaps:  IterSCF          15    1386.787   20801.806    99.89
elaps:  kinefsm           2       0.493       0.986     0.00
elaps:  nlefsm            2       2.272       4.544     0.02
elaps:  DHSCF            16      10.382     166.113     0.80
elaps:  DHSCF1            1       0.096       0.096     0.00
elaps:  DHSCF2            1       4.228       4.228     0.02
elaps:  REORD           130       0.001       0.195     0.00
elaps:  POISON           17       0.316       5.372     0.03
elaps:  DHSCF3           16       9.688     155.006     0.74
elaps:  rhoofd           16       3.320      53.128     0.26
elaps:  cellXC           16       0.540       8.634     0.04
elaps:  vmat             16       4.776      76.414     0.37
elaps:  MolMec            2       0.000       0.000     0.00
elaps:  diagon           15    1376.225   20643.373    99.13
elaps:  c-eigval       5280       1.614    8522.703    40.93
elaps:  c-buildHS      5280       0.013      67.307     0.32
elaps:  cdiag         10560       1.662   17552.536    84.29
elaps:  cdiag1        10560       0.107    1125.615     5.41
elaps:  cdiag2        10560       0.467    4935.062    23.70
elaps:  cdiag3        10560       0.983   10379.890    49.85
elaps:  cdiag4        10560       0.046     483.867     2.32
elaps:  c-eigvec       5280       1.734    9153.751    43.96
elaps:  c-buildD       5280       0.561    2960.410    14.22
elaps:  DHSCF4            1       6.655       6.655     0.03
elaps:  dfscf             1       6.295       6.295     0.03
elaps:  overfsm           1       0.047       0.047     0.00
elaps:  optical           1       0.000       0.000     0.00
  
>> End of run:   5-DEC-2015   8:42:16
