Siesta Version:                                        siesta-3.2-pl-3
Architecture  : x86_64-unknown-linux-gnu--unknown
Compiler flags: mpiifort -g -O2 -fPIC -xSSE4.1 -fp-model source -shared-intel 
PARALLEL version

* Running on    8 nodes in parallel
>> Start of run:  27-NOV-2015   0:22:52

                           ***********************       
                           *  WELCOME TO SIESTA  *       
                           ***********************       

reinit: Reading from standard input
************************** Dump of input data file ****************************
#(1) General system descriptors
SystemName            GRP_doping    # Descriptive name of the system
SystemLabel           GRP_doping    # Short name for naming files
%include STRUCT.fdf
%include KPT.fdf
%include BASIS.fdf
#%include TS.fdf # for transiesta calculation
#(4) DFT, Grid, SCF
XC.functional         GGA           # LDA or GGA (default = LDA)
XC.authors            PBE           # CA (Ceperley-Aldr) = PZ
                                    #    (Perdew-Zunger) - LDA - Default
                                    # PW92 (Perdew-Wang-92) - LDA
                                    # PBE (Perdew-Burke-Ernzerhof) - GGA
MeshCutoff            200.000000    Ry      # Default: 50.0 Ry ~ 0.444 Bohr
                                    #         100.0 Ry ~ 0.314 Bohr
MaxSCFIterations      500           # Default: 50
DM.MixingWeight       0.05          # Default: 0.25
DM.NumberPulay        10            # Default: 0
DM.PulayOnFile        F             # SystemLabel.P1, SystemLabel.P2
DM.Tolerance          1.d-4         # Default: 1.d-4
DM.UseSaveDM          .true.        # because of the bug
SCFMustConverge       .true.
NeglNonOverlapInt     F             # Default: F
#(5) Eigenvalue problem: order-N or diagonalization
SolutionMethod        Diagon        # or Transiesta
ElectronicTemperature 300.0 K       # Default: 300.0 K
#(6) Molecular dynamics and relaxations
#MD.TypeOfRun          CG            # Type of dynamics:
#MD.VariableCell       F
#MD.NumCGsteps         0           # 0 for single-point / 100 for gopt
#MD.MaxCGDispl         0.2 Bohr      # Default: 0.2 Bohr
#MD.MaxForceTol        0.02 eV/Ang   # Default: 0.04 eV/Ang
#MD.MaxStressTol       1.0 GPa       # Default: 1.0 GPa
# Geometry Constraints
#%block GeometryConstraints
#	position from 1 to 44
#%endblock GeometryConstraints
************************** End of input data file *****************************

reinit: -----------------------------------------------------------------------
reinit: System Name: GRP_doping
reinit: -----------------------------------------------------------------------
reinit: System Label: GRP_doping                                                  
reinit: -----------------------------------------------------------------------

initatom: Reading input for the pseudopotentials and atomic orbitals ----------
 Species number:            1  Label: B Atomic number:           5
 Species number:            2  Label: C Atomic number:           6
Ground state valence configuration:   2s02  2p01
Reading pseudopotential information in formatted form from B.psf

Valence configuration for pseudopotential generation:
2s( 2.00) rc: 1.74
2p( 1.00) rc: 1.74
3d( 0.00) rc: 1.74
4f( 0.00) rc: 1.74
Ground state valence configuration:   2s02  2p02
Reading pseudopotential information in formatted form from C.psf

Valence configuration for pseudopotential generation:
2s( 2.00) rc: 1.54
2p( 2.00) rc: 1.54
3d( 0.00) rc: 1.54
4f( 0.00) rc: 1.54
For B, standard SIESTA heuristics set lmxkb to 3
 (one more than the basis l, including polarization orbitals).
Use PS.lmax or PS.KBprojectors blocks to override.
For C, standard SIESTA heuristics set lmxkb to 3
 (one more than the basis l, including polarization orbitals).
Use PS.lmax or PS.KBprojectors blocks to override.

<basis_specs>
===============================================================================
B                    Z=   5    Mass=  10.810        Charge= 0.17977+309
Lmxo=1 Lmxkb= 3    BasisType=split      Semic=F
L=0  Nsemic=0  Cnfigmx=2
          n=1  nzeta=2  polorb=0
            splnorm:   0.15000    
               vcte:    0.0000    
               rinn:    0.0000    
                rcs:    0.0000      0.0000    
            lambdas:    1.0000      1.0000    
L=1  Nsemic=0  Cnfigmx=2
          n=1  nzeta=2  polorb=1
            splnorm:   0.15000    
               vcte:    0.0000    
               rinn:    0.0000    
                rcs:    0.0000      0.0000    
            lambdas:    1.0000      1.0000    
-------------------------------------------------------------------------------
L=0  Nkbl=1  erefs: 0.17977+309
L=1  Nkbl=1  erefs: 0.17977+309
L=2  Nkbl=1  erefs: 0.17977+309
L=3  Nkbl=1  erefs: 0.17977+309
===============================================================================
</basis_specs>

atom: Called for B                     (Z =   5)

read_vps: Pseudopotential generation method:
read_vps: ATM3      Troullier-Martins                       
Total valence charge:    3.00000

read_vps: Pseudopotential includes a core correction:
read_vps: Pseudo-core for xc-correction

xc_check: Exchange-correlation functional:
xc_check: GGA Perdew, Burke & Ernzerhof 1996
V l=0 = -2*Zval/r beyond r=  1.7165
V l=1 = -2*Zval/r beyond r=  1.7165
V l=2 = -2*Zval/r beyond r=  1.7165
V l=3 = -2*Zval/r beyond r=  1.6951
All V_l potentials equal beyond r=  1.7165
This should be close to max(r_c) in ps generation
All pots = -2*Zval/r beyond r=  1.7165

VLOCAL1: 99.0% of the norm of Vloc inside     14.733 Ry
VLOCAL1: 99.9% of the norm of Vloc inside     33.577 Ry
atom: Maximum radius for 4*pi*r*r*local-pseudopot. charge    2.04484
atom: Maximum radius for r*vlocal+2*Zval:    1.75994
GHOST: No ghost state for L =  0
GHOST: No ghost state for L =  1
GHOST: No ghost state for L =  2
GHOST: No ghost state for L =  3

KBgen: Kleinman-Bylander projectors: 
   l= 0   rc=  1.897051   el= -0.693730   Ekb=  4.595746   kbcos=  0.286105
   l= 1   rc=  1.920920   el= -0.265236   Ekb= -2.350715   kbcos= -0.315747
   l= 2   rc=  2.044840   el=  0.002055   Ekb= -0.690767   kbcos= -0.013822
   l= 3   rc=  2.149707   el=  0.003188   Ekb= -0.315358   kbcos= -0.002055

KBgen: Total number of  Kleinman-Bylander projectors:   16
atom: -------------------------------------------------------------------------

atom: SANKEY-TYPE ORBITALS:
atom: Selected multiple-zeta basis: split     

SPLIT: Orbitals with angular momentum L= 0

SPLIT: Basis orbitals for state 2s

SPLIT: PAO cut-off radius determined from an
SPLIT: energy shift=  0.007350 Ry

   izeta = 1
                 lambda =    1.000000
                     rc =    5.422032
                 energy =   -0.686029
                kinetic =    0.576707
    potential(screened) =   -1.262736
       potential(ionic) =   -3.271094

   izeta = 2
                 rmatch =    4.222573
              splitnorm =    0.150000
                 energy =   -0.602132
                kinetic =    0.858975
    potential(screened) =   -1.461107
       potential(ionic) =   -3.582536

SPLIT: Orbitals with angular momentum L= 1

SPLIT: Basis orbitals for state 2p

SPLIT: PAO cut-off radius determined from an
SPLIT: energy shift=  0.007350 Ry

   izeta = 1
                 lambda =    1.000000
                     rc =    6.790259
                 energy =   -0.258578
                kinetic =    1.481412
    potential(screened) =   -1.739989
       potential(ionic) =   -3.657461

   izeta = 2
                 rmatch =    4.608740
              splitnorm =    0.150000
                 energy =   -0.173757
                kinetic =    2.186690
    potential(screened) =   -2.360447
       potential(ionic) =   -4.464260

POLgen: Perturbative polarization orbital with L=  2

POLgen: Polarization orbital for state 2p

   izeta = 1
                     rc =    6.790259
                 energy =    0.684082
                kinetic =    1.471481
    potential(screened) =   -0.787399
       potential(ionic) =   -2.406985
atom: Total number of Sankey-type orbitals: 13

atm_pop: Valence configuration (for local Pseudopot. screening):
 2s( 2.00)                                                            
 2p( 1.00)                                                            
Vna: chval, zval:    3.00000   3.00000

Vna:  Cut-off radius for the neutral-atom potential:   6.790259
comcore: Pseudo-core radius Rcore=  2.122997

atom: _________________________________________________________________________

<basis_specs>
===============================================================================
C                    Z=   6    Mass=  12.010        Charge= 0.17977+309
Lmxo=1 Lmxkb= 3    BasisType=split      Semic=F
L=0  Nsemic=0  Cnfigmx=2
          n=1  nzeta=2  polorb=0
            splnorm:   0.15000    
               vcte:    0.0000    
               rinn:    0.0000    
                rcs:    0.0000      0.0000    
            lambdas:    1.0000      1.0000    
L=1  Nsemic=0  Cnfigmx=2
          n=1  nzeta=2  polorb=1
            splnorm:   0.15000    
               vcte:    0.0000    
               rinn:    0.0000    
                rcs:    0.0000      0.0000    
            lambdas:    1.0000      1.0000    
-------------------------------------------------------------------------------
L=0  Nkbl=1  erefs: 0.17977+309
L=1  Nkbl=1  erefs: 0.17977+309
L=2  Nkbl=1  erefs: 0.17977+309
L=3  Nkbl=1  erefs: 0.17977+309
===============================================================================
</basis_specs>

atom: Called for C                     (Z =   6)

read_vps: Pseudopotential generation method:
read_vps: ATM3      Troullier-Martins                       
Total valence charge:    4.00000

read_vps: Pseudopotential includes a core correction:
read_vps: Pseudo-core for xc-correction

xc_check: Exchange-correlation functional:
xc_check: GGA Perdew, Burke & Ernzerhof 1996
V l=0 = -2*Zval/r beyond r=  1.5227
V l=1 = -2*Zval/r beyond r=  1.5227
V l=2 = -2*Zval/r beyond r=  1.5227
V l=3 = -2*Zval/r beyond r=  1.5038
All V_l potentials equal beyond r=  1.5227
This should be close to max(r_c) in ps generation
All pots = -2*Zval/r beyond r=  1.5227

VLOCAL1: 99.0% of the norm of Vloc inside     18.722 Ry
VLOCAL1: 99.9% of the norm of Vloc inside     42.668 Ry
atom: Maximum radius for 4*pi*r*r*local-pseudopot. charge    1.83678
atom: Maximum radius for r*vlocal+2*Zval:    1.58088
GHOST: No ghost state for L =  0
GHOST: No ghost state for L =  1
GHOST: No ghost state for L =  2
GHOST: No ghost state for L =  3

KBgen: Kleinman-Bylander projectors: 
   l= 0   rc=  1.704034   el= -1.009801   Ekb=  5.335044   kbcos=  0.316824
   l= 1   rc=  1.704034   el= -0.388707   Ekb= -3.785862   kbcos= -0.366464
   l= 2   rc=  1.791422   el=  0.001971   Ekb= -0.970471   kbcos= -0.009212
   l= 3   rc=  1.859892   el=  0.003065   Ekb= -0.399525   kbcos= -0.001223

KBgen: Total number of  Kleinman-Bylander projectors:   16
atom: -------------------------------------------------------------------------

atom: SANKEY-TYPE ORBITALS:
atom: Selected multiple-zeta basis: split     

SPLIT: Orbitals with angular momentum L= 0

SPLIT: Basis orbitals for state 2s

SPLIT: PAO cut-off radius determined from an
SPLIT: energy shift=  0.007350 Ry

   izeta = 1
                 lambda =    1.000000
                     rc =    4.632753
                 energy =   -1.002270
                kinetic =    0.855760
    potential(screened) =   -1.858031
       potential(ionic) =   -5.417575

   izeta = 2
                 rmatch =    3.431921
              splitnorm =    0.150000
                 energy =   -0.867111
                kinetic =    1.300804
    potential(screened) =   -2.167915
       potential(ionic) =   -5.962684

SPLIT: Orbitals with angular momentum L= 1

SPLIT: Basis orbitals for state 2p

SPLIT: PAO cut-off radius determined from an
SPLIT: energy shift=  0.007350 Ry

   izeta = 1
                 lambda =    1.000000
                     rc =    5.658549
                 energy =   -0.381140
                kinetic =    2.399701
    potential(screened) =   -2.780841
       potential(ionic) =   -6.206085

   izeta = 2
                 rmatch =    3.653288
              splitnorm =    0.150000
                 energy =   -0.249149
                kinetic =    3.542762
    potential(screened) =   -3.791911
       potential(ionic) =   -7.581078

POLgen: Perturbative polarization orbital with L=  2

POLgen: Polarization orbital for state 2p

   izeta = 1
                     rc =    5.658549
                 energy =    1.109913
                kinetic =    2.304789
    potential(screened) =   -1.194876
       potential(ionic) =   -4.013592
atom: Total number of Sankey-type orbitals: 13

atm_pop: Valence configuration (for local Pseudopot. screening):
 2s( 2.00)                                                            
 2p( 2.00)                                                            
Vna: chval, zval:    4.00000   4.00000

Vna:  Cut-off radius for the neutral-atom potential:   5.658549
comcore: Pseudo-core radius Rcore=  1.791422

atom: _________________________________________________________________________

prinput: Basis input ----------------------------------------------------------

PAO.BasisType split     

%block ChemicalSpeciesLabel
    1    5 B                       # Species index, atomic number, species label
    2    6 C                       # Species index, atomic number, species label
%endblock ChemicalSpeciesLabel

%block PAO.Basis                 # Define Basis set
B                     2                    # Species label, number of l-shells
 n=2   0   2                         # n, l, Nzeta 
   5.422      4.223   
   1.000      1.000   
 n=2   1   2 P   1                   # n, l, Nzeta, Polarization, NzetaPol
   6.790      4.609   
   1.000      1.000   
C                     2                    # Species label, number of l-shells
 n=2   0   2                         # n, l, Nzeta 
   4.633      3.432   
   1.000      1.000   
 n=2   1   2 P   1                   # n, l, Nzeta, Polarization, NzetaPol
   5.659      3.653   
   1.000      1.000   
%endblock PAO.Basis

prinput: ----------------------------------------------------------------------

coor:   Atomic-coordinates input format  =     Cartesian coordinates
coor:                                          (in Angstroms)

siesta: Atomic coordinates (Bohr) and species
siesta:      2.23554   1.32097   0.00000  1        1
siesta:     11.54782   1.32097   0.00000  1        2
siesta:     20.86199   1.32097   0.00000  1        3
siesta:      6.89205   9.38661   0.00000  1        4
siesta:     16.20434   9.38661   0.00000  1        5
siesta:     11.54857  17.45226   0.00000  1        6
siesta:     25.51851   9.38661   0.00000  1        7
siesta:     20.86274  17.45226   0.00000  1        8
siesta:     30.17503  17.45226   0.00000  1        9
siesta:      4.56367   2.66461   0.00000  2       10
siesta:     32.50328  21.48508   0.00000  2       11
siesta:     34.83141  22.82873   0.00000  2       12
siesta:     34.83116  17.45226   0.00000  2       13
siesta:     37.15930  18.79590   0.00000  2       14
siesta:     32.50291  13.41944   0.00000  2       15
siesta:     34.83104  14.76308   0.00000  2       16
siesta:     30.17465   9.38661   0.00000  2       17
siesta:     32.50278  10.73026   0.00000  2       18
siesta:     27.84639   5.35379   0.00000  2       19
siesta:     30.17453   6.69743   0.00000  2       20
siesta:     27.84714  21.48508   0.00000  2       21
siesta:     30.17527  22.82873   0.00000  2       22
siesta:      6.89168   1.32097   0.00000  2       23
siesta:      9.21981   2.66461   0.00000  2       24
siesta:     13.87595   2.66461   0.00000  2       25
siesta:     16.20396   1.32097   0.00000  2       26
siesta:     18.53210   2.66461   0.00000  2       27
siesta:     23.19013   2.66461   0.00000  2       28
siesta:     25.51813   1.32097   0.00000  2       29
siesta:     27.84627   2.66461   0.00000  2       30
siesta:      4.56380   5.35379   0.00000  2       31
siesta:      6.89193   6.69743   0.00000  2       32
siesta:      9.21994   5.35379   0.00000  2       33
siesta:     11.54807   6.69743   0.00000  2       34
siesta:     13.87608   5.35379   0.00000  2       35
siesta:     16.20421   6.69743   0.00000  2       36
siesta:     18.53411   5.35379   0.00000  2       37
siesta:     20.86224   6.69743   0.00000  2       38
siesta:     23.19025   5.35379   0.00000  2       39
siesta:     25.51838   6.69743   0.00000  2       40
siesta:      9.22019  10.73026   0.00000  2       41
siesta:     11.54820   9.38661   0.00000  2       42
siesta:     13.87633  10.73026   0.00000  2       43
siesta:     18.53247  10.73026   0.00000  2       44
siesta:     20.86237   9.38661   0.00000  2       45
siesta:     23.19050  10.73026   0.00000  2       46
siesta:      9.22031  13.41944   0.00000  2       47
siesta:     11.54845  14.76308   0.00000  2       48
siesta:     13.87645  13.41944   0.00000  2       49
siesta:     16.20459  14.76308   0.00000  2       50
siesta:     18.53448  13.41944   0.00000  2       51
siesta:     20.86262  14.76308   0.00000  2       52
siesta:     13.87670  18.79590   0.00000  2       53
siesta:     16.20471  17.45226   0.00000  2       54
siesta:     18.53284  18.79590   0.00000  2       55
siesta:     13.87683  21.48508   0.00000  2       56
siesta:     16.20496  22.82873   0.00000  2       57
siesta:     18.53486  21.48508   0.00000  2       58
siesta:     20.86299  22.82873   0.00000  2       59
siesta:     27.84664  10.73026   0.00000  2       60
siesta:     23.19063  13.41944   0.00000  2       61
siesta:     25.51876  14.76308   0.00000  2       62
siesta:     23.19088  18.79590   0.00000  2       63
siesta:     27.84677  13.41944   0.00000  2       64
siesta:     30.17490  14.76308   0.00000  2       65
siesta:     25.51888  17.45226   0.00000  2       66
siesta:     27.84702  18.79590   0.00000  2       67
siesta:     23.19100  21.48508   0.00000  2       68
siesta:     25.51913  22.82873   0.00000  2       69
siesta:     32.50316  18.79590   0.00000  2       70
siesta:     37.16131  21.48508   0.00000  2       71
siesta:     39.48945  22.82873   0.00000  2       72

siesta: System type = slab      

initatomlists: Number of atoms, orbitals, and projectors:     72   936  1152

siesta: ******************** Simulation parameters ****************************
siesta:
siesta: The following are some of the parameters of the simulation.
siesta: A complete list of the parameters used, including default values,
siesta: can be found in file out.fdf
siesta:
redata: Non-Collinear-spin run           =     F
redata: SpinPolarized (Up/Down) run      =     F
redata: Number of spin components        =     1
redata: Long output                      =     F
redata: Number of Atomic Species         =        2
redata: Charge density info will appear in .RHO file
redata: Write Mulliken Pop.              =     NO
redata: Mesh Cutoff                      =   200.0000  Ry
redata: Net charge of the system         =     0.0000 |e|
redata: Max. number of SCF Iter          =      500
redata: SCF convergence failure will abort job
redata: Performing Pulay mixing using    =    10 iterations
redata: Mix DM in first SCF step ?       =     F
redata: Write Pulay info on disk?        =     F
redata: Discard 1st Pulay DM after  kick =     F
redata: New DM Mixing Weight             =     0.0500
redata: New DM Occupancy tolerance       = 0.000000000001
redata: No kicks to SCF
redata: DM Mixing Weight for Kicks       =     0.5000
redata: DM Tolerance for SCF             =     0.000100
redata: Require Energy convergence for SCF =     F
redata: DM Energy tolerance for SCF      =     0.000100 eV
redata: Require Harris convergence for SCF =     F
redata: DM Harris energy tolerance for SCF =     0.000100 eV
redata: Using Saved Data (generic)   =     F
redata: Use continuation files for DM    =     T
redata: Neglect nonoverlap interactions  =     F
redata: Method of Calculation            =     Diagonalization
redata: Divide and Conquer               =     T
redata: Electronic Temperature           =     0.0019  Ry
redata: Fix the spin of the system       =     F
redata: Dynamics option                  =     Verlet MD run
redata: Initial MD time step             =        1
redata:   Final MD time step             =        1
redata: Length of MD time step           =     1.0000  fs
redata: Initial Temperature of MD run    =     0.0000  K
redata: Perform a MD quench              =     F
redata: ***********************************************************************
Total number of electrons:   279.000000
Total ionic charge:   279.000000

* ProcessorY, Blocksize:    2  24

k-point displ. along   1 input, could be:     0.00    0.50
k-point displ. along   2 input, could be:     0.00    0.50
 Kpoints in:          364 . Kpoints trimmed:          352

siesta: k-grid: Number of k-points =   352
siesta: k-grid: Cutoff (effective) =     5.000 Ang
siesta: k-grid: Supercell and displacements
siesta: k-grid:   26   0   0      0.000
siesta: k-grid:    0  26   0      0.000
siesta: k-grid:    0   0   1      0.000
Naive supercell factors:     2    2    2

superc: Internal auxiliary supercell:     2 x     2 x     2  =       8
superc: Number of atoms, orbitals, and projectors:    576   7488   9216

* Maximum dynamic memory allocated =     6 MB

siesta:                 ==============================
                            Begin MD step =      1
                        ==============================

superc: Internal auxiliary supercell:     2 x     2 x     2  =       8
superc: Number of atoms, orbitals, and projectors:    576   7488   9216

outcell: Unit cell vectors (Ang):
       14.785000    0.000000    0.000000
        7.393000   12.805052    0.000000
        0.000000    0.000000   10.000000

outcell: Cell vector modules (Ang)   :   14.785000   14.786000   10.000000
outcell: Cell angles (23,13,12) (deg):     90.0000     90.0000     60.0000
outcell: Cell volume (Ang**3)        :   1893.2269
New_DM. Step:     1
Initializing Density Matrix...

InitMesh: MESH =   120 x   120 x    90 =     1296000
InitMesh: Mesh cutoff (required, used) =   200.000   223.865 Ry

* Maximum dynamic memory allocated =   208 MB

stepf: Fermi-Dirac step function

siesta: Program's energy decomposition (eV):
siesta: Ebs     =     -4462.020104
siesta: Eions   =     17250.500670
siesta: Ena     =      3769.693351
siesta: Ekin    =      5903.534022
siesta: Enl     =       294.153343
siesta: DEna    =        -0.000010
siesta: DUscf   =         0.000000
siesta: DUext   =         0.000000
siesta: Exc     =     -3961.784674
siesta: eta*DQ  =         0.000000
siesta: Emadel  =         0.000000
siesta: Emeta   =         0.000000
siesta: Emolmec =         0.000000
siesta: Ekinion =         0.000000
siesta: Eharris =    -11172.936803
siesta: Etot    =    -11244.904638
siesta: FreeEng =    -11244.904638

siesta: iscf   Eharris(eV)      E_KS(eV)   FreeEng(eV)   dDmax  Ef(eV)
siesta:    1   -11172.9368   -11244.9046   -11244.9046  1.8840 -8.1283
timer: Routine,Calls,Time,% = IterSCF        1    6785.252  99.81
elaps: Routine,Calls,Wall,% = IterSCF        1     849.237  99.81
siesta:    2   -11163.3301   -11129.6319   -11129.6684  0.2512 -4.7983
siesta:    3   -11150.2490   -11159.7390   -11159.7835  0.4031 -5.6759
siesta:    4   -11148.6089   -11156.5587   -11156.5923  0.3400 -5.6616
siesta:    5   -11148.3837   -11143.8284   -11143.8619  0.0800 -5.8366
siesta:    6   -11146.5434   -11143.3780   -11143.4176  0.0527 -5.9034
siesta:    7   -11145.1984   -11142.5922   -11142.6310  0.0081 -6.0267
siesta:    8   -11145.1697   -11142.9847   -11143.0172  0.0061 -6.0200
siesta:    9   -11145.1550   -11143.4634   -11143.4972  0.0046 -6.0138
siesta:   10   -11145.1528   -11143.9649   -11144.0006  0.0034 -6.0087
siesta:   11   -11145.1525   -11144.3275   -11144.3641  0.0023 -6.0063
siesta:   12   -11145.1523   -11145.0112   -11145.0479  0.0005 -6.0052
siesta:   13   -11145.1522   -11145.0784   -11145.1144  0.0005 -6.0050
siesta:   14   -11145.1522   -11145.0944   -11145.1303  0.0004 -6.0050
siesta:   15   -11145.1522   -11145.1463   -11145.1823  0.0001 -6.0049

siesta: E_KS(eV) =           -11145.1454

siesta: E_KS - E_eggbox =    -11145.1454

siesta: Atomic forces (eV/Ang):
----------------------------------------
   Tot    0.185890   -0.124424    0.000000
----------------------------------------
   Max    3.095226
   Res    1.153293    sqrt( Sum f_i^2 / 3N )
----------------------------------------
   Max    3.095226    constrained

Stress-tensor-Voigt (kbar):     -118.94     -117.97       -0.25       -0.59        0.00        0.00
(Free)E + p*V (eV/cell)   -11051.7654
Target enthalpy (eV/cell)   -11145.1814

siesta: Stress tensor (static) (eV/Ang**3):
        -0.074236   -0.000368    0.000000
        -0.000368   -0.073633    0.000000
         0.000000    0.000000   -0.000157

siesta: Pressure (static):         79.05581138  kBar

siesta: Stress tensor (total) (eV/Ang**3):
        -0.074236   -0.000368    0.000000
        -0.000368   -0.073633    0.000000
         0.000000    0.000000   -0.000157

siesta: Pressure (total):         79.05581138  kBar

siesta: Temp_ion =       0.000 K

* Maximum dynamic memory allocated =   223 MB

siesta: Program's energy decomposition (eV):
siesta: Ebs     =     -3692.060973
siesta: Eions   =     17250.500670
siesta: Ena     =      3769.693351
siesta: Ekin    =      7406.982870
siesta: Enl     =      -692.074723
siesta: DEna    =      -342.086476
siesta: DUscf   =        36.447199
siesta: DUext   =         0.000000
siesta: Exc     =     -4073.606969
siesta: eta*DQ  =         0.000000
siesta: Emadel  =         0.000000
siesta: Emeta   =         0.000000
siesta: Emolmec =         0.000000
siesta: Ekinion =         0.000000
siesta: Eharris =    -11145.152153
siesta: Etot    =    -11145.145417
siesta: FreeEng =    -11145.181376

siesta: Final energy (eV):
siesta:  Band Struct. =   -3692.060973
siesta:       Kinetic =    7406.982870
siesta:       Hartree =   21689.213890
siesta:    Ext. field =       0.000000
siesta:   Exch.-corr. =   -4073.606969
siesta:  Ion-electron =  -50118.291929
siesta:       Ion-ion =   13950.556721
siesta:       Ekinion =       0.000000
siesta:         Total =  -11145.145417

siesta: Atomic forces (eV/Ang):
siesta:      1   -0.005941   -0.026762    0.000000
siesta:      2    0.016606   -0.032329    0.000000
siesta:      3   -0.024157   -0.020690    0.000000
siesta:      4   -0.001809    0.000548    0.000000
siesta:      5    0.016571   -0.007321    0.000000
siesta:      6   -0.002327   -0.000539    0.000000
siesta:      7    0.014210   -0.007288    0.000000
siesta:      8   -0.019862    0.006749    0.000000
siesta:      9    0.014203   -0.005957    0.000000
siesta:     10    2.687237    1.552294    0.000000
siesta:     11    0.906113   -0.525001    0.000000
siesta:     12    0.024551   -3.068642    0.000000
siesta:     13    0.005479    1.026459    0.000000
siesta:     14   -2.662688    1.546761    0.000000
siesta:     15   -0.888348   -0.532427    0.000000
siesta:     16    0.014005    0.003437    0.000000
siesta:     17    0.006528    1.023941    0.000000
siesta:     18   -2.674635    1.545519    0.000000
siesta:     19   -0.888515   -0.531307    0.000000
siesta:     20    0.012961    0.002245    0.000000
siesta:     21   -0.889250   -0.527763    0.000000
siesta:     22   -0.003399    0.029214    0.000000
siesta:     23    0.008809    1.005873    0.000000
siesta:     24   -2.692191    1.549708    0.000000
siesta:     25    2.689350    1.552517    0.000000
siesta:     26    0.010294    1.007477    0.000000
siesta:     27   -2.647175    1.538507    0.000000
siesta:     28    2.687450    1.552447    0.000000
siesta:     29    0.009368    1.006990    0.000000
siesta:     30   -2.676391    1.544784    0.000000
siesta:     31    0.888905   -0.525972    0.000000
siesta:     32   -0.010619   -3.087581    0.000000
siesta:     33   -0.889613   -0.531126    0.000000
siesta:     34    0.000466    0.007821    0.000000
siesta:     35    0.906212   -0.530947    0.000000
siesta:     36    0.019740   -3.095226    0.000000
siesta:     37   -0.928621   -0.522727    0.000000
siesta:     38   -0.002812    0.008283    0.000000
siesta:     39    0.902571   -0.531848    0.000000
siesta:     40   -0.008826   -3.087458    0.000000
siesta:     41    2.686770    1.558331    0.000000
siesta:     42    0.005456    1.024823    0.000000
siesta:     43   -2.690587    1.553304    0.000000
siesta:     44    2.726972    1.549212    0.000000
siesta:     45   -0.022974    1.032068    0.000000
siesta:     46   -2.694967    1.553023    0.000000
siesta:     47    0.888985   -0.526038    0.000000
siesta:     48   -0.009940   -3.086419    0.000000
siesta:     49   -0.885879   -0.532468    0.000000
siesta:     50    0.028847    0.000334    0.000000
siesta:     51    0.864206   -0.523191    0.000000
siesta:     52   -0.011291   -3.089413    0.000000
siesta:     53    2.686392    1.555396    0.000000
siesta:     54    0.005733    1.025671    0.000000
siesta:     55   -2.644989    1.538563    0.000000
siesta:     56    0.920171   -0.531115    0.000000
siesta:     57    0.025906   -3.068279    0.000000
siesta:     58   -0.927162   -0.521933    0.000000
siesta:     59   -0.006858    0.026283    0.000000
siesta:     60    2.687246    1.556513    0.000000
siesta:     61   -0.888982   -0.531284    0.000000
siesta:     62    0.000108    0.006451    0.000000
siesta:     63    2.684986    1.556834    0.000000
siesta:     64    0.900936   -0.530424    0.000000
siesta:     65   -0.008749   -3.086959    0.000000
siesta:     66    0.004201    1.025363    0.000000
siesta:     67   -2.690417    1.552087    0.000000
siesta:     68    0.902218   -0.528239    0.000000
siesta:     69   -0.010577   -3.061629    0.000000
siesta:     70    2.687062    1.555282    0.000000
siesta:     71   -0.929184   -0.521070    0.000000
siesta:     72   -0.022195    0.031838    0.000000
siesta: ----------------------------------------
siesta:    Tot    0.185890   -0.124424    0.000000

siesta: Stress tensor (static) (eV/Ang**3):
siesta:    -0.074236   -0.000368    0.000000
siesta:    -0.000368   -0.073633    0.000000
siesta:     0.000000    0.000000   -0.000157

siesta: Cell volume =       1893.226895 Ang**3

siesta: Pressure (static):
siesta:                Solid            Molecule  Units
siesta:           0.00053740          0.00083814  Ry/Bohr**3
siesta:           0.04934222          0.07695476  eV/Ang**3
siesta:          79.05581138        123.29645337  kBar
(Free)E+ p_basis*V_orbitals  =      -11111.600177
(Free)Eharris+ p_basis*V_orbitals  =      -11111.605983

siesta: Electric dipole (a.u.)  =    0.000000    0.000000    0.000000
siesta: Electric dipole (Debye) =    0.000000    0.000000    0.000000

* Maximum dynamic memory allocated : Node    0 =   221 MB
* Maximum dynamic memory allocated : Node    1 =    81 MB
* Maximum dynamic memory allocated : Node    2 =    84 MB
* Maximum dynamic memory allocated : Node    3 =   210 MB
* Maximum dynamic memory allocated : Node    4 =   223 MB
* Maximum dynamic memory allocated : Node    5 =    79 MB
* Maximum dynamic memory allocated : Node    6 =    82 MB
* Maximum dynamic memory allocated : Node    7 =   205 MB

* Maximum memory occured during matrixMtoO                    

timer: CPU execution times:
timer:  Routine       Calls   Time/call    Tot.time        %
timer:  siesta            1  100773.825  100773.825   100.00
timer:  Setup             1       4.056       4.056     0.00
timer:  bands             1       0.017       0.017     0.00
timer:  writewave         1       0.040       0.040     0.00
timer:  KSV_init          1       0.004       0.004     0.00
timer:  IterMD            1  100761.880  100761.880    99.99
timer:  hsparse           1       0.393       0.393     0.00
timer:  overlap           1       6.388       6.388     0.01
timer:  IterSCF          15    6703.619  100554.285    99.78
timer:  kinefsm           2       3.306       6.613     0.01
timer:  nlefsm            2      20.264      40.528     0.04
timer:  DHSCF            16     107.398    1718.367     1.71
timer:  DHSCF1            1       1.012       1.012     0.00
timer:  DHSCF2            1      41.696      41.696     0.04
timer:  REORD           130       0.010       1.301     0.00
timer:  POISON           17       2.251      38.274     0.04
timer:  DHSCF3           16     102.343    1637.493     1.62
timer:  rhoofd           16      19.983     319.720     0.32
timer:  cellXC           16       3.501      56.011     0.06
timer:  vmat             16      52.514     840.227     0.83
timer:  MolMec            2       0.000       0.000     0.00
timer:  diagon           15    6591.664   98874.954    98.12
timer:  c-eigval       5280       6.701   35383.364    35.11
timer:  c-buildHS      5280       0.123     648.511     0.64
timer:  cdiag         10560       6.913   73003.014    72.44
timer:  cdiag1        10560       0.428    4514.509     4.48
timer:  cdiag2        10560       1.916   20234.659    20.08
timer:  cdiag3        10560       3.957   41788.222    41.47
timer:  cdiag4        10560       0.230    2429.836     2.41
timer:  c-eigvec       5280       7.323   38665.707    38.37
timer:  c-buildD       5280       4.694   24782.168    24.59
timer:  DHSCF4            1      37.260      37.260     0.04
timer:  dfscf             1      34.721      34.721     0.03
timer:  overfsm           1       0.427       0.427     0.00
timer:  optical           1       6.940       6.940     0.01
  

elaps: ELAPSED times:
elaps:  Routine       Calls   Time/call    Tot.time        %
elaps:  siesta            1   12612.255   12612.255   100.00
elaps:  Setup             1       0.528       0.528     0.00
elaps:  bands             1       0.002       0.002     0.00
elaps:  writewave         1       0.005       0.005     0.00
elaps:  KSV_init          1       0.001       0.001     0.00
elaps:  IterMD            1   12610.732   12610.732    99.99
elaps:  hsparse           1       0.049       0.049     0.00
elaps:  overlap           1       0.974       0.974     0.01
elaps:  IterSCF          15     838.993   12584.894    99.78
elaps:  kinefsm           2       0.502       1.003     0.01
elaps:  nlefsm            2       2.582       5.164     0.04
elaps:  DHSCF            16      13.659     218.539     1.73
elaps:  DHSCF1            1       0.126       0.126     0.00
elaps:  DHSCF2            1       5.216       5.216     0.04
elaps:  REORD           130       0.001       0.177     0.00
elaps:  POISON           17       0.281       4.780     0.04
elaps:  DHSCF3           16      12.803     204.855     1.62
elaps:  rhoofd           16       4.220      67.523     0.54
elaps:  cellXC           16       0.437       6.998     0.06
elaps:  vmat             16       6.570     105.112     0.83
elaps:  MolMec            2       0.000       0.000     0.00
elaps:  diagon           15     824.942   12374.137    98.11
elaps:  c-eigval       5280       0.838    4427.081    35.10
elaps:  c-buildHS      5280       0.017      88.496     0.70
elaps:  cdiag         10560       0.850    8981.198    71.21
elaps:  cdiag1        10560       0.053     561.381     4.45
elaps:  cdiag2        10560       0.240    2531.759    20.07
elaps:  cdiag3        10560       0.496    5235.455    41.51
elaps:  cdiag4        10560       0.029     304.629     2.42
elaps:  c-eigvec       5280       0.891    4702.180    37.28
elaps:  c-buildD       5280       0.613    3238.250    25.68
elaps:  DHSCF4            1       8.221       8.221     0.07
elaps:  dfscf             1       7.737       7.737     0.06
elaps:  overfsm           1       0.055       0.055     0.00
elaps:  optical           1       0.001       0.001     0.00
  
>> End of run:  27-NOV-2015   3:53:04
